<VTKFile type="UnstructuredGrid">
<UnstructuredGrid>
<Piece NumberOfPoints="50" NumberOfCells="109">
<Points>
<DataArray type="Float64" Name="coordinates" NumberOfComponents="3" format="ascii">
0.1 0.2 0.05 
0.1 0.2 0 
0 0.2 0 
0 0.2 0.05 
0.1 0 0.05 
0.1 0 0 
0 0 0 
0 0 0.05 
0 0.1 0 
0 0.15 0 
0 0.05 0 
0.1 0.1 0 
0.1 0.15 0 
0.1 0.05 0 
0.1 0.1 0.05 
0.1 0.15 0.05 
0.1 0.05 0.05 
0 0.1 0.05 
0 0.15 0.05 
0 0.05 0.05 
0.05 0.2 0.05 
0.05 0.2 0 
0.05 0 0.05 
0.05 0 0 
0 0.0353333 0.025 
0 0.0764907 0.025 
0 0.123611 0.025 
0 0.164722 0.025 
0.0404395 0.0403722 0 
0.0710784 0.0312237 0 
0.0499237 0.0972073 0 
0.0314379 0.170776 0 
0.0648868 0.170637 0 
0.0716349 0.0638022 0 
0.0423026 0.133242 0 
0.1 0.0353333 0.025 
0.1 0.0764907 0.025 
0.1 0.123611 0.025 
0.1 0.164722 0.025 
0.0595605 0.0403722 0.05 
0.0275851 0.0308349 0.05 
0.0500763 0.0972073 0.05 
0.0685621 0.170776 0.05 
0.0351132 0.170637 0.05 
0.0283651 0.0638022 0.05 
0.0576974 0.133242 0.05 
0.0346345 0.2 0.0249872 
0.0669269 0.2 0.0249974 
0.0346345 0 0.0249872 
0.0669269 0 0.0249974 
</DataArray>
</Points>
<Cells>
<DataArray type="Int32" Name="connectivity" format="ascii">
24 6 10 28 
6 23 28 48 
48 6 7 24 
24 6 28 48 
23 28 48 29 
28 48 39 40 
28 48 40 24 
40 28 24 44 
28 24 44 25 
25 10 8 30 
30 10 28 25 
28 24 25 10 
28 30 25 44 
23 5 29 49 
33 29 13 35 
5 4 35 49 
23 48 49 29 
5 29 49 35 
29 13 35 5 
49 29 39 35 
11 30 33 36 
28 33 30 44 
11 13 36 33 
13 35 36 33 
11 30 36 37 
35 36 33 39 
30 36 37 41 
36 33 39 41 
30 36 41 33 
41 30 33 44 
26 8 9 34 
27 26 9 34 
8 30 34 26 
27 26 34 43 
8 30 26 25 
27 2 3 46 
31 21 2 46 
21 31 32 46 
34 32 31 43 
34 27 43 31 
2 31 46 27 
34 32 43 45 
34 27 31 9 
27 31 9 2 
30 11 12 37 
34 30 12 37 
12 37 38 32 
37 30 41 45 
34 30 37 45 
12 37 32 34 
37 34 45 32 
32 1 21 47 
1 12 38 32 
47 1 0 38 
21 47 46 32 
37 38 32 45 
38 1 32 47 
38 32 45 42 
38 32 42 47 
32 42 47 43 
47 32 43 46 
19 7 24 40 
22 7 40 48 
44 40 19 24 
7 48 24 40 
48 39 40 22 
48 39 22 49 
17 19 25 44 
17 41 44 25 
39 44 41 33 
24 44 25 19 
41 30 44 25 
17 41 25 26 
41 25 26 30 
35 4 16 39 
4 22 39 49 
4 35 49 39 
29 39 35 33 
16 35 39 36 
36 16 14 41 
41 16 39 36 
36 37 41 14 
39 44 33 28 
18 17 26 41 
18 26 27 43 
45 41 18 26 
26 34 43 45 
43 26 45 18 
3 18 27 43 
43 3 20 46 
3 27 46 43 
27 43 31 46 
43 47 46 20 
37 14 15 45 
38 37 15 45 
14 41 45 37 
15 38 45 42 
38 15 0 42 
20 42 43 47 
47 0 20 42 
0 47 38 42 
32 42 43 45 
28 29 33 39 
31 32 46 43 
39 40 44 28 
48 39 29 28 
48 29 39 49 
26 45 30 34 
26 30 45 41 
</DataArray>
<DataArray type="Int32" Name="offsets" format="ascii">
4
8
12
16
20
24
28
32
36
40
44
48
52
56
60
64
68
72
76
80
84
88
92
96
100
104
108
112
116
120
124
128
132
136
140
144
148
152
156
160
164
168
172
176
180
184
188
192
196
200
204
208
212
216
220
224
228
232
236
240
244
248
252
256
260
264
268
272
276
280
284
288
292
296
300
304
308
312
316
320
324
328
332
336
340
344
348
352
356
360
364
368
372
376
380
384
388
392
396
400
404
408
412
416
420
424
428
432
436
</DataArray>
<DataArray type="UInt8" Name="types" format="ascii">
10
10
10
10
10
10
10
10
10
10
10
10
10
10
10
10
10
10
10
10
10
10
10
10
10
10
10
10
10
10
10
10
10
10
10
10
10
10
10
10
10
10
10
10
10
10
10
10
10
10
10
10
10
10
10
10
10
10
10
10
10
10
10
10
10
10
10
10
10
10
10
10
10
10
10
10
10
10
10
10
10
10
10
10
10
10
10
10
10
10
10
10
10
10
10
10
10
10
10
10
10
10
10
10
10
10
10
10
10
</DataArray>
</Cells>
<PointData>
<DataArray type="Float64" Name="proteus_solution" NumberOfComponents="8" format="ascii">
3.86978e+08 0.454932 0.7749 1.89205 1 0.025 0.025 0 
3.91777e+08 0.480393 -0.262175 1.85993 0.00159404 -0.01 -0.01 0 
3.94189e+08 0.480598 -0.261786 1.86523 0.00159404 -0.01 -0.01 0 
3.89374e+08 0.470079 0.747356 1.92118 1 0.025 0.025 0 
3.84593e+08 0.46212 0.76334 1.86744 1 0.025 0.025 0 
3.8938e+08 0.504621 -0.23235 1.90947 0.00159404 -0.01 -0.01 0 
3.91749e+08 0.479153 -0.243392 1.86094 0 -0.025 -0.025 0 
3.86958e+08 0.426295 0.82347 1.90397 1 0.025 0.025 0 
3.92966e+08 0.498674 -0.223905 1.85422 0 -0.025 -0.025 0 
3.93562e+08 0.47221 -0.240386 1.8576 0 -0.025 -0.025 0 
3.92365e+08 0.465885 -0.225808 1.8718 0 -0.025 -0.025 0 
3.90583e+08 0.460734 -0.172677 1.87089 0.00159404 -0.01 -0.01 0 
3.91171e+08 0.449056 -0.239198 1.86076 0.00159404 -0.01 -0.01 0 
3.9e+08 0.480283 -0.187568 1.9038 0.00159404 -0.01 -0.01 0 
3.85795e+08 0.444764 0.798249 1.87861 1 0.025 0.025 0 
3.86371e+08 0.48766 0.798741 1.88279 1 0.025 0.025 0 
3.85208e+08 0.460283 0.756413 1.87374 1 0.025 0.025 0 
3.88178e+08 0.432707 0.805013 1.85179 1 0.025 0.025 0 
3.88777e+08 0.486744 0.794959 1.88373 1 0.025 0.025 0 
3.87575e+08 0.45635 0.750792 1.85114 1 0.025 0.025 0 
3.88181e+08 0.482169 0.789876 1.8629 1 0.025 0.025 0 
3.92986e+08 0.472318 -0.252318 1.87548 0.00159404 -0.01 -0.01 0 
3.85773e+08 0.48099 0.793142 1.89007 1 0.025 0.025 0 
3.90559e+08 0.467329 -0.217258 1.85388 0 -0.025 -0.025 0 
3.8979e+08 0.475007 0.245316 1.87198 0.5 0 0 0 
3.9029e+08 0.452961 0.244556 1.87054 0.5 3.46945e-18 3.46945e-18 0 
3.90856e+08 0.475254 0.243001 1.87028 0.5 3.46945e-18 3.46945e-18 0 
3.91349e+08 0.452764 0.24438 1.86754 0.5 0 0 0 
3.91286e+08 0.460142 -0.245463 1.88967 0 -0.025 -0.025 0 
3.90449e+08 0.463335 -0.246824 1.87281 0 -0.025 -0.025 0 
3.91742e+08 0.477154 -0.22491 1.88003 0 -0.025 -0.025 0 
3.93066e+08 0.471173 -0.257848 1.86548 0 -0.025 -0.025 0 
3.92262e+08 0.495827 -0.223608 1.86567 0 -0.025 -0.025 0 
3.90828e+08 0.473304 -0.233551 1.88237 0 -0.025 -0.025 0 
3.92353e+08 0.464331 -0.198175 1.88693 0 -0.025 -0.025 0 
3.87424e+08 0.440889 0.271572 1.8793 0.5 0 0 0 
3.87913e+08 0.472284 0.252874 1.88383 0.5 -3.46945e-18 -3.46945e-18 0 
3.88463e+08 0.483013 0.252001 1.87881 0.5 -3.46945e-18 -3.46945e-18 0 
3.88949e+08 0.458778 0.245431 1.90059 0.5 0 0 0 
3.86045e+08 0.442084 0.750037 1.86461 1 0.025 0.025 0 
3.86683e+08 0.463362 0.735013 1.88171 1 0.025 0.025 0 
3.86948e+08 0.441926 0.778359 1.85958 1 0.025 0.025 0 
3.87381e+08 0.460293 0.768379 1.88845 1 0.025 0.025 0 
3.88184e+08 0.459456 0.773433 1.87796 1 0.025 0.025 0 
3.87066e+08 0.444739 0.7584 1.88586 1 0.025 0.025 0 
3.87192e+08 0.465899 0.78491 1.8619 1 0.025 0.025 0 
3.90956e+08 0.459189 0.227912 1.88752 0.498883 -1.27658e-05 -1.27658e-05 0 
3.90176e+08 0.482796 0.249807 1.88262 0.499777 -2.55316e-06 -2.55316e-06 0 
3.88529e+08 0.479568 0.239401 1.86898 0.498883 -1.27658e-05 -1.27658e-05 0 
3.87761e+08 0.468624 0.226762 1.85721 0.499777 -2.55316e-06 -2.55316e-06 0 
</DataArray>
<DataArray type="Float64" Name="proteus_size_scale" NumberOfComponents="3" format="ascii">
0.005 0.00978285 0.01 
0.005 0.0095464 0.01 
0.005 0.00977911 0.01 
0.005 0.00989203 0.01 
0.005 0.0098796 0.01 
0.005 0.00970439 0.01 
0.005 0.01 0.01 
0.005 0.01 0.01 
0.005 0.00990699 0.01 
0.005 0.00984962 0.01 
0.005 0.00994445 0.01 
0.005 0.00929546 0.01 
0.005 0.00938931 0.01 
0.005 0.00935463 0.01 
0.005 0.00985061 0.01 
0.005 0.00988561 0.01 
0.005 0.00987047 0.01 
0.005 0.01 0.01 
0.005 0.01 0.01 
0.005 0.01 0.01 
0.005 0.00991108 0.01 
0.005 0.00953814 0.01 
0.005 0.01 0.01 
0.005 0.0098796 0.01 
0.005 0.01 0.01 
0.005 0.00996465 0.01 
0.005 0.00994574 0.01 
0.005 0.00986362 0.01 
0.005 0.00990034 0.01 
0.005 0.00973711 0.01 
0.005 0.00971236 0.01 
0.005 0.00974557 0.01 
0.005 0.00964765 0.01 
0.005 0.00959903 0.01 
0.005 0.00977554 0.01 
0.005 0.00968114 0.01 
0.005 0.00958639 0.01 
0.005 0.00962074 0.01 
0.005 0.00967833 0.01 
0.005 0.00987047 0.01 
0.005 0.01 0.01 
0.005 0.00985755 0.01 
0.005 0.00987696 0.01 
0.005 0.00986831 0.01 
0.005 0.00991377 0.01 
0.005 0.00985128 0.01 
0.005 0.00976611 0.01 
0.005 0.00972427 0.01 
0.005 0.00996845 0.01 
0.005 0.0098678 0.01 
</DataArray>
<DataArray type="Float64" Name="proteus_size_frame" NumberOfComponents="9" format="ascii">
0.078041 -0.400644 0.709649 0.0731564 -0.408043 -0.704545 0.994262 0.820357 -0.00386191 
0.35053 -0.345246 0.725994 0.337675 -0.3965 -0.687221 0.873559 0.850642 -0.0256707 
-0.235999 0.120457 0.948201 0.389254 -0.690606 0.29275 0.890385 0.713129 0.12334 
-0.0732318 0.276636 0.885452 0.0718597 -0.580644 0.46365 0.994723 0.765719 0.0316927 
0.0625639 -0.530177 -0.479553 -0.0585557 0.270178 -0.877251 0.996322 0.80369 -0.0214442 
0.404564 -0.680533 -0.324158 -0.232312 0.159344 -0.940826 0.884511 0.715182 -0.0988363 
-5.01989e-17 0.620962 0.629128 -2.70532e-17 -0.50259 0.777302 1 -0.601506 5.261e-17 
-1.83292e-17 0.0688349 0.948812 0 -0.206786 0.315841 1 0.975962 1.7391e-17 
4.23339e-18 0.884042 0.10524 2.25781e-17 -0.0935561 0.994447 1 -0.457949 -2.28982e-17 
-0.0473723 -0.334394 -0.92252 0.0716837 0.819444 -0.385613 0.996302 -0.465503 -0.0161193 
-2.61874e-17 -0.612514 0.434226 -8.77761e-19 -0.295258 -0.900804 1 0.733246 1.05805e-17 
0.608937 -0.553935 0.109221 0.0732348 -0.0542164 -0.993986 0.789831 0.830793 0.00795782 
0.661786 -0.495339 -0.0723634 -0.0461563 0.0380945 -0.997375 0.748271 0.867864 0.00247754 
0.79617 -0.666069 0.00582 -0.0025503 -0.0127321 -0.999913 0.605068 0.745781 -0.0118727 
3.25081e-17 -0.252629 0.0938449 0 -0.023813 -0.995587 1 0.96727 -3.05072e-18 
6.26341e-17 -0.30312 0.299331 -2.28437e-17 -0.0950933 -0.954149 1 0.948196 -4.05446e-17 
-7.00341e-17 -0.334223 -0.240314 8.77761e-19 0.0827433 -0.970695 1 0.938855 -1.59781e-17 
2.33412e-18 0.352749 0.704757 0 -0.350416 0.709449 1 0.867627 -1.64499e-18 
1.70153e-18 0.45092 0.80058 3.61398e-17 -0.60244 0.599226 1 0.658588 -2.30181e-17 
-2.09895e-17 -0.704099 -0.125375 -2.36132e-17 0.0889787 -0.992109 1 0.704505 -2.60585e-17 
-2.61592e-17 -0.00502445 0.999919 4.45887e-17 -0.395168 -0.0127137 1 0.918595 2.6724e-17 
0.000717476 0.00575095 0.999983 0.787873 -0.672473 0.00301893 0.615837 0.740099 -0.0050273 
-2.03962e-20 -0.630909 -0.473593 -2.91374e-18 0.339252 -0.880744 1 0.697755 -2.57592e-18 
0.0859634 0.733902 0.500421 -0.0580319 -0.41973 0.865752 0.994607 -0.534055 0.00726244 
-1.43086e-18 0.561505 -0.24414 -2.34426e-17 0.141364 0.96974 1 0.815309 2.23839e-17 
4.94972e-18 -0.603507 0.283468 2.17831e-18 -0.178392 -0.958982 1 0.777146 6.85877e-19 
-3.98792e-18 -0.385301 0.404261 -8.97506e-18 -0.170298 -0.914644 1 0.906941 -6.59682e-18 
-0.0651572 -0.305905 -0.905317 0.0718227 0.697397 -0.423766 0.995287 -0.64812 -0.0286871 
-1.14185e-17 0.817299 0.0365141 -9.20038e-18 -0.0298629 0.999333 1 -0.57544 9.61118e-18 
0.125356 0.737299 0.249561 -0.0459817 -0.181052 0.968267 0.991046 -0.650854 0.0133582 
0.0479337 -0.554607 0.131028 0.00844143 -0.071553 -0.991376 0.998815 0.82903 0.00209046 
-0.0578964 -0.140495 -0.976853 0.154768 0.722103 -0.212562 0.986253 -0.677369 -0.0239881 
0.0796304 -0.360146 0.650004 0.0613014 -0.314071 -0.759913 0.994938 0.878439 -0.0052027 
0.0828744 -0.677409 0.0417759 0.0111567 -0.0226499 -0.999097 0.996498 0.735258 0.00771152 
0.0308827 -0.49275 0.142261 -0.00629314 -0.0801271 -0.989772 0.999503 0.866474 -0.0106275 
0.1547 -0.646561 -0.207407 -0.0530767 0.121637 -0.978048 0.986535 0.753102 -0.0200965 
0.0976702 -0.561345 0.0773969 0.0123515 -0.0396159 -0.996989 0.995142 0.826633 0.00477812 
0.103227 -0.483955 -0.00256703 -0.00729753 -0.00494488 -0.999972 0.994631 0.875079 -0.0070703 
0.126099 -0.48559 0.305839 0.0515899 -0.146357 -0.952024 0.990675 0.861848 0.0106481 
-3.59056e-17 -0.643679 -0.27397 2.60734e-18 0.183365 -0.961738 1 0.743004 -7.3295e-18 
-2.51467e-17 -0.164554 -0.423935 -2.47066e-17 0.077024 -0.905693 1 0.983356 -3.30371e-17 
-2.37044e-17 -0.451896 0.0976329 -9.93462e-18 -0.0443317 -0.995222 1 0.890969 -7.57283e-18 
4.973e-17 -0.351371 0.687542 8.61993e-18 -0.332692 -0.726145 1 0.875131 -2.79321e-17 
1.21617e-17 0.152486 0.968495 -3.32399e-18 -0.593021 0.249034 1 0.790616 -1.09508e-17 
-1.61616e-17 -0.643349 0.364037 1.64558e-17 -0.251457 -0.931384 1 0.723099 2.12101e-17 
2.18146e-17 -0.439996 0.0959772 -1.46643e-17 -0.0424255 -0.995384 1 0.896997 -1.66903e-17 
-0.0685916 0.124304 0.975687 0.180146 -0.655091 0.217335 0.981245 0.745254 0.0283025 
0.0676271 -0.156514 0.957026 0.142235 -0.584158 -0.289016 0.98752 0.796406 -0.0239111 
-7.68606e-18 0.757207 0.450876 -3.40336e-17 -0.382491 0.892587 1 -0.52947 3.38434e-17 
0.0931055 0.672947 0.464607 -0.0796996 -0.332728 0.88509 0.992461 -0.660632 0.0274911 
</DataArray>
<DataArray type="Int32" Name="proteus_number_0" NumberOfComponents="1" format="ascii">
0 
1 
2 
3 
4 
5 
6 
7 
8 
9 
10 
11 
12 
13 
14 
15 
16 
17 
18 
19 
20 
21 
22 
23 
24 
25 
26 
27 
28 
29 
30 
31 
32 
33 
34 
35 
36 
37 
38 
39 
40 
41 
42 
43 
44 
45 
46 
47 
48 
49 
</DataArray>
</PointData>
<CellData>
<DataArray type="Int32" Name="proteus_number_3_1" NumberOfComponents="1" format="ascii">
0 
1 
2 
3 
4 
5 
6 
7 
8 
9 
10 
11 
12 
13 
14 
15 
16 
17 
18 
19 
20 
21 
22 
23 
24 
25 
26 
27 
28 
29 
30 
31 
32 
33 
34 
35 
36 
37 
38 
39 
40 
41 
42 
43 
44 
45 
46 
47 
48 
49 
50 
51 
52 
53 
54 
55 
56 
57 
58 
59 
60 
61 
62 
63 
64 
65 
66 
67 
68 
69 
70 
71 
72 
73 
74 
75 
76 
77 
78 
79 
80 
81 
82 
83 
84 
85 
86 
87 
88 
89 
90 
91 
92 
93 
94 
95 
96 
97 
98 
99 
100 
101 
102 
103 
104 
105 
106 
107 
108 
</DataArray>
<DataArray type="Int32" Name="apf_part" NumberOfComponents="1" format="ascii">
0
0
0
0
0
0
0
0
0
0
0
0
0
0
0
0
0
0
0
0
0
0
0
0
0
0
0
0
0
0
0
0
0
0
0
0
0
0
0
0
0
0
0
0
0
0
0
0
0
0
0
0
0
0
0
0
0
0
0
0
0
0
0
0
0
0
0
0
0
0
0
0
0
0
0
0
0
0
0
0
0
0
0
0
0
0
0
0
0
0
0
0
0
0
0
0
0
0
0
0
0
0
0
0
0
0
0
0
0
</DataArray>
</CellData>
</Piece>
</UnstructuredGrid>
</VTKFile>
