<VTKFile type="UnstructuredGrid">
<UnstructuredGrid>
<Piece NumberOfPoints="8260" NumberOfCells="45533">
<Points>
<DataArray type="Float64" Name="coordinates" NumberOfComponents="3" format="ascii">
4.3625 4.23616 0.918839 
0.0757435 2.85296 1.10238 
4.3625 4.3625 1.175 
0 2.87665 1.15286 
0 2.76758 1.20919 
0.0775 2.85457 1.22768 
0.0808049 2.90665 1.2311 
2.96 3.3425 1.0475 
0.124038 2.83831 1.28447 
4.1075 4.1075 1.0475 
1.43 2.705 1.0475 
0.2825 2.8325 1.3025 
0.158585 2.96186 1.29959 
0.167414 3.21723 1.40507 
3.22186 3.48273 0.40554 
0.282488 2.7038 1.17548 
4.6175 4.8725 1.175 
4.3625 4.6175 1.175 
4.1075 4.3625 1.175 
3.8525 4.1075 1.175 
3.5975 4.1075 1.175 
2.0675 3.215 1.175 
2.45 3.47 1.43 
3.47 3.8525 1.175 
1.3025 2.705 1.175 
0 2.7361 1.10192 
0 2.62815 1.0663 
0.063008 2.63544 1.01455 
0.078764 2.66601 1.10565 
0.0830548 2.79605 1.07555 
0.153937 2.57879 1.04707 
4.49 4.3625 0.92 
4.49 4.49 1.175 
4.49 4.49 1.0475 
4.235 4.235 1.0475 
0.153098 3.08741 1.30163 
0 3.01025 1.20375 
0 3.14358 1.2207 
0.155 3.215 1.3025 
0.2825 3.0875 1.3025 
0.145059 2.83558 1.17001 
0.281713 2.82067 1.15802 
0.0646327 2.90049 1.03656 
0.066125 2.89294 1.07326 
0.083809 2.90796 1.09574 
0.0775 3.02743 1.11854 
0.152845 2.95956 1.17295 
0.409967 2.82911 1.17813 
0.5375 2.8325 1.175 
0.282366 2.95788 1.176 
0.409941 2.9514 1.1834 
0 2.83339 1.03238 
0.0543977 2.772 1.03081 
0 2.56378 0.978757 
0.0775 2.88007 1.00964 
0 2.70258 0.996055 
0.0775 2.63163 0.954207 
0.14979 2.83826 1.04676 
0.134581 3.34937 1.29299 
0 3.27679 1.27901 
0.0775 3.39667 1.14399 
1.43 2.705 1.175 
0 2.50953 0.867183 
0 2.96865 1.07434 
0.0638977 3.03137 1.05514 
0 3.10542 1.10493 
0 3.36264 1.17795 
0.153005 3.5986 1.30256 
0 3.08561 1.37338 
0 2.86303 1.34667 
1.5575 2.8325 1.3025 
4.6175 5.1275 1.175 
1.94 3.0875 1.175 
1.8125 2.96 1.175 
4.8725 5.6375 1.175 
1.8125 3.0875 1.175 
4.235 4.235 1.175 
0.161583 2.83079 1.43335 
0.178205 2.97343 1.43328 
0.194134 3.08931 1.43894 
0.537424 2.83238 1.29591 
4.1075 4.1075 0.92 
0.7925 2.8325 1.3025 
0.5375 3.0875 1.3025 
2.3225 3.3425 1.175 
1.0475 2.8325 1.3025 
1.3025 2.8325 1.3025 
1.5575 2.8325 1.175 
1.685 2.8325 1.0475 
2.45 3.3425 1.0475 
2.45 3.3425 1.175 
2.3225 3.3425 1.3025 
1.685 2.8325 0.92 
0.270364 3.34321 1.2894 
0.161637 3.46856 1.29956 
0.7925 3.0875 1.3025 
1.0475 3.0875 1.3025 
0.409617 2.96662 1.41821 
0.66374 3.2156 1.40383 
0.537168 3.34275 1.29606 
0.7925 3.3425 1.3025 
0.381653 3.244 1.39435 
0 3.50062 1.30924 
0.165077 3.72078 1.43379 
0.155 3.3425 1.43 
0.173815 3.46126 1.43687 
0.275665 3.34643 1.53019 
0.158116 3.59709 1.43275 
0.278429 3.59915 1.5375 
0 3.27357 1.52875 
0 3.75817 1.42893 
3.0875 3.5975 1.175 
3.215 3.725 1.175 
3.3425 3.8525 1.175 
1.3025 3.0875 1.3025 
1.5575 3.0875 1.3025 
1.175 3.215 1.43 
1.0475 3.3425 1.3025 
1.3025 3.3425 1.3025 
0.405187 3.21524 1.67922 
0.155 3.215 1.685 
3.725 4.235 1.175 
0.161485 3.85126 1.43997 
0.167936 3.97763 1.42978 
0.463706 2.99582 2.42397 
1.94 2.96 1.175 
4.3625 4.1075 0.7925 
3.97994 3.97161 0.67906 
3.47 3.47 0.41 
3.3425 3.3425 0.7925 
1.8125 2.8325 0.92 
2.3225 3.215 1.0475 
1.8125 2.8325 0.7925 
1.94003 2.95159 0.678099 
1.43007 2.69796 0.675693 
3.725 4.1075 1.175 
3.5975 4.1075 1.3025 
3.98 4.235 1.175 
3.8525 4.1075 1.3025 
3.8525 4.235 1.175 
0.928005 3.463 2.96156 
1.6867 2.71202 0.408307 
3.725 4.235 1.43 
3.8525 4.3625 1.3025 
4.235 4.3625 1.175 
0.41 3.47 2.96 
4.235 4.49 1.175 
4.1075 4.3625 1.3025 
4.3625 4.49 1.175 
3.21936 3.23623 0.417525 
4.745 5.255 1.175 
4.6175 5.3825 1.175 
5 5.765 1.175 
0.919389 2.70547 1.42764 
1.685 2.96 1.175 
0.41 2.195 0.41 
1.93956 2.96001 1.93569 
4.49 4.6175 1.175 
4.49 4.745 1.175 
4.3625 4.6175 1.3025 
0.990799 2.62514 0 
1.06751 2.08262 0 
1.17919 2.45472 0.404968 
4.6175 5.1275 1.3025 
4.745 5.3825 1.175 
4.745 5.51 1.175 
2.30445 2.90055 0 
4.49 5.255 1.175 
4.6175 5.255 1.175 
3.8525 4.3625 1.175 
3.98 4.3625 1.175 
3.98 4.49 1.175 
4.1075 4.49 1.175 
4.1075 4.6175 1.175 
4.235 4.6175 1.175 
3.96302 3.74642 0.401481 
4.03456 3.89158 0 
4.235 4.745 1.175 
4.3625 4.745 1.175 
4.3625 4.8725 1.175 
4.49 4.8725 1.175 
4.49 5 1.175 
4.6175 5 1.175 
4.3625 5.1275 1.175 
4.49 5.1275 1.175 
4.49 4.745 1.0475 
4.6175 4.8725 1.0475 
4.3625 5.255 1.175 
4.1075 4.8725 1.175 
4.1075 5.1275 1.175 
4.235 5.255 1.175 
0.624589 2.24716 0 
2.19549 2.94559 0.688382 
4.3625 4.3625 1.0475 
1.68502 2.69878 0.67512 
4.1075 4.235 1.0475 
4.235 4.3625 1.0475 
4.3625 4.3625 0.92 
4.235 4.49 1.0475 
4.3625 4.49 1.0475 
4.3625 4.6175 1.0475 
4.49 4.6175 1.0475 
3.3425 4.1075 1.175 
3.47 4.1075 1.175 
3.47 4.235 1.175 
3.5975 4.235 1.175 
3.5975 4.3625 1.175 
3.725 4.3625 1.175 
3.98 4.235 1.0475 
4.1075 4.3625 1.0475 
3.725 4.49 1.175 
3.8525 4.49 1.175 
3.8525 4.6175 1.175 
3.725 4.6175 1.175 
3.5975 4.6175 1.175 
3.725 4.745 1.175 
3.8525 4.8725 1.175 
2.3225 3.08706 0.80209 
0.920005 2.44664 0.670095 
0.665 2.45 0.665 
3.725 3.98 1.0475 
4.23336 3.99602 0.405962 
3.8525 4.1075 1.0475 
3.72493 3.72172 0.670507 
3.8525 4.1075 0.92 
3.725 4.235 1.0475 
3.8525 4.235 1.0475 
3.5975 3.8525 0.92 
3.47 3.98 1.0475 
3.5975 3.98 1.0475 
3.5975 4.1075 1.0475 
3.725 4.1075 1.0475 
2.0675 3.3425 1.175 
0.876446 3.00182 1.90901 
2.45 3.47 1.175 
2.96 3.47 1.43 
0 2.83374 2.37382 
3.47 3.725 1.175 
2.8325 3.5975 1.175 
3.47 3.8525 1.0475 
3.3425 3.725 1.0475 
2.96 3.215 0.92 
3.3425 3.5975 0.92 
3.0875 3.3425 0.92 
3.21539 3.20908 0.675238 
4.235 4.1075 0.92 
3.215 3.5975 1.0475 
3.0875 3.8525 1.175 
2.3225 3.5975 1.175 
2.5775 3.5975 1.175 
2.705 3.5975 1.175 
2.96 3.47 1.0475 
3.0875 3.5975 1.0475 
2.705 3.725 1.175 
2.8325 3.8525 1.175 
3.3425 3.98 1.0475 
3.3425 3.8525 0.92 
3.215 3.725 1.0475 
3.3425 3.8525 1.0475 
3.3425 4.235 1.175 
3.0875 4.1075 1.175 
3.215 4.235 1.175 
3.3425 4.3625 1.175 
2.5775 3.8525 1.175 
2.8325 4.1075 1.175 
3.215 3.98 1.0475 
3.0875 4.3625 1.175 
1.3025 2.8325 1.175 
1.43 2.8325 1.175 
1.43 2.96 1.175 
1.5575 2.96 1.175 
0.664991 2.83134 1.17604 
0.7925 2.8325 1.175 
0.537409 2.95367 1.18062 
0.664967 2.9557 1.17905 
0.41 2.96 1.94 
0.92 2.8325 1.175 
1.0475 2.8325 1.175 
1.175 2.8325 1.175 
0.792469 2.95771 1.1771 
0.92 2.96 1.175 
1.0475 2.96 1.175 
1.175 2.96 1.175 
1.3025 2.96 1.175 
1.0475 3.0875 1.175 
1.175 3.0875 1.175 
1.3025 3.0875 1.175 
1.175 3.215 1.175 
1.43 3.0875 1.175 
1.5575 3.0875 1.175 
1.685 3.0875 1.175 
1.3025 3.215 1.175 
1.43 3.215 1.175 
1.5575 3.215 1.175 
1.685 3.215 1.175 
0.157577 3.72581 1.30223 
0.280659 3.59751 1.30061 
0.5375 3.5975 1.3025 
4.3625 4.235 1.0475 
4.235 4.235 1.43 
1.175 2.705 1.0475 
1.3025 2.705 1.0475 
3.5975 3.85236 0.79579 
3.5975 3.725 0.92 
3.8525 3.98 0.92 
1.685 2.96 1.0475 
1.3025 2.5775 1.0475 
0.7925 2.5775 1.0475 
0.7925 2.45 0.92 
1.5575 3.3425 1.175 
1.8125 3.0875 1.0475 
0.665 2.45 0.92 
1.8125 3.3425 1.175 
1.0475 2.5775 0.7925 
2.0675 3.0875 0.92 
1.94 3.215 1.0475 
2.0675 3.215 1.0475 
2.0675 3.5975 1.175 
1.3025 3.3425 1.175 
1.43 3.3425 1.175 
1.43 3.47 1.175 
1.8125 3.5975 1.175 
2.195 3.725 1.175 
2.3225 3.8525 1.175 
2.0675 3.8525 1.175 
1.685 2.96 1.43 
3.3425 3.725 1.175 
1.91212 10 5.44236 
0.2825 2.5775 0.92 
0.154808 2.57885 0.919991 
0.145548 2.71 1.04448 
0.2825 2.705 1.0475 
3.3425 3.5975 1.3025 
3.215 3.5975 1.175 
0.5375 2.5775 0.92 
0.409969 2.70472 1.04773 
0.5375 2.705 1.0475 
3.0875 3.47 1.175 
2.96 3.47 1.175 
0.7925 2.5775 0.92 
0.665 2.705 1.0475 
0.7925 2.705 1.0475 
1.175 2.705 1.175 
1.0475 2.5775 0.92 
0.92 2.705 1.0475 
1.0475 2.705 1.0475 
0.151917 3.09187 1.16933 
0.281865 3.07598 1.1579 
0 2.92763 0.971774 
0.075442 3.00271 1.01322 
0 3.23981 1.14243 
0.0710551 3.14598 1.03026 
0.0726538 3.27553 1.05826 
0.0772758 3.17041 1.07454 
0.0775 3.29273 1.09056 
0.152183 3.09011 1.04695 
0.153098 3.21505 1.1758 
0.408875 3.0791 1.18306 
0.5375 3.0875 1.175 
0.2825 3.215 1.175 
0.409624 3.2129 1.17664 
0.665 3.0875 1.175 
0.7925 3.0875 1.175 
0.92 3.0875 1.175 
0.53645 3.20665 1.1831 
0.665 3.215 1.175 
0.7925 3.215 1.175 
0.92 3.215 1.175 
1.0475 3.215 1.175 
0.7925 3.3425 1.175 
0.92 3.3425 1.175 
1.0475 3.3425 1.175 
1.175 3.3425 1.175 
0.92 3.47 1.175 
1.0475 3.47 1.175 
1.175 3.47 1.175 
1.3025 3.47 1.175 
2.99201 10 5.60373 
2.42126 9.54026 5.28002 
1.91955 8.08109 4.97341 
1.8811 9.09964 4.95237 
0.280522 2.83438 1.04927 
0.409976 2.83174 1.04827 
0.142159 2.9667 1.04765 
0.280467 2.96376 1.04977 
0.5375 2.8325 1.0475 
0.665 2.8325 1.0475 
0.5375 2.8325 0.92 
0.409768 2.96095 1.05116 
0.5375 2.96 1.0475 
0 2.80828 0.918063 
0 2.6458 0.878913 
0.152181 2.85635 0.92496 
0.156193 2.70918 0.919457 
0.281571 2.85809 0.955298 
0.155 3.3425 1.175 
0.282453 3.33958 1.17063 
0 3.45085 1.11297 
0.0768289 3.39942 1.10669 
0.148566 3.34531 1.04778 
0.14896 3.47144 1.17303 
0.41 3.3425 1.175 
0.5375 3.3425 1.175 
0.665 3.3425 1.175 
0.2825 3.47 1.175 
0.409922 3.46792 1.177 
0.537475 3.46888 1.1761 
0.665 3.47 1.175 
0.7925 3.47 1.175 
0.155 2.5775 0.7925 
0 2.55521 0.70343 
0 2.96232 0.870409 
0 3.05856 0.98036 
0.081142 3.15005 0.96988 
0 3.21039 1.01298 
0 3.33833 1.06463 
0.074294 3.34153 0.99634 
0.0774327 3.27846 1.02486 
0.0775 3.27724 0.965186 
0.155 3.8525 1.3025 
0.0885714 3.78752 1.25935 
0.155 3.5975 1.175 
0.282319 3.59176 1.16622 
0.0869341 3.3872 0.973118 
0.0973919 3.65657 1.11923 
0.158077 3.72687 1.17625 
0.156012 3.97989 1.30232 
0.2825 3.8525 1.3025 
0.0779637 3.52901 1.07671 
0 3.5004 1.03556 
0 3.41985 1.01767 
0.0654321 3.4775 0.992248 
0.0825926 3.52362 0.991189 
0.15408 3.59854 1.04757 
0 3.5751 1.11095 
0.0646331 3.64284 1.04013 
0.06694 3.6603 1.08222 
0 3.71257 1.19413 
0.0797315 3.77971 1.12531 
0.0733713 3.78285 1.08806 
0 3.88825 1.24571 
0.061466 3.90842 1.14336 
0.268854 4.1074 1.28961 
0.111381 4.11063 1.3074 
0.160481 4.23371 1.30184 
0 4.06261 1.25531 
1.5575 2.8325 1.0475 
0 3.99128 1.46334 
0.160695 4.10623 1.43818 
0 4.21031 1.39192 
0.172311 4.23493 1.44715 
4.6175 4.8725 0.92 
4.49 5 1.0475 
4.6175 5 1.0475 
4.6175 5.1275 1.0475 
[...]
<PointData>
<DataArray type="Float64" Name="proteus_solution" NumberOfComponents="8" format="ascii">
2228.75 0.000120082 9.00374e-06 0.000626734 0.300862 -0.0735796 -0.0811674 0.00758783 
1362.74 0.00031021 0.000173363 0.000119579 0.842862 0.100523 0.10238 -0.0018575 
1088.41 0.000872703 0.0017122 0.00179274 0.920853 0.172516 0.175002 -0.00248662 
1163.76 0.00162743 0.000190575 -0.00062665 0.920771 0.14871 0.152869 -0.00415944 
975.862 -0.000571465 0.000253383 -0.00184764 0.967384 0.203395 0.209201 -0.0058058 
924.419 0.00253763 -0.000156052 -0.00149757 0.994465 0.221578 0.227692 -0.0061133 
913.572 0.00100819 0.000830402 -0.0018534 0.988024 0.224898 0.231118 -0.00621991 
1588.36 4.37161e-05 -0.000235374 0.000272033 0.645835 0.0492608 0.0474977 0.00176313 
758.485 -0.00355706 -1.76239e-05 -0.00184246 0.996897 0.277191 0.284484 -0.00729262 
1590.61 -0.000138163 -0.000350603 0.000586601 0.647045 0.0494948 0.0474941 0.00200065 
1589.1 1.01565e-05 4.1064e-06 -0.00092084 0.644622 0.0488361 0.0475094 0.0013267 
716.872 -0.00155556 -0.000345072 -0.00109368 0.985633 0.295337 0.302511 -0.00717393 
725.335 -0.00194009 0.000565896 -0.00120507 0.992493 0.292203 0.29961 -0.00740699 
500.382 0.000954827 -0.000646129 -0.00509973 0.997548 0.396648 0.405085 -0.00843763 
6040.77 8.03313e-06 9.23525e-06 -0.000198389 0.0207535 -0.579505 -0.594463 0.0149584 
1074.77 -0.00115665 -0.000356402 -0.0017307 0.880322 0.171087 0.175489 -0.00440135 
1087.63 0.00020658 0.000916106 0.00154734 0.918934 0.172563 0.175008 -0.00244478 
1087.67 -8.10902e-05 0.000850687 0.0010757 0.918899 0.172538 0.175004 -0.00246566 
1087.38 0.00025713 0.000999347 0.0015381 0.918867 0.172516 0.175008 -0.00249161 
1087.28 0.000176612 0.000719309 0.00140416 0.918804 0.172471 0.175007 -0.00253636 
1088.73 -0.00034061 0.000340771 0.00152394 0.918781 0.172455 0.175002 -0.002547 
1073.01 2.64131e-05 0.000178811 -0.00394556 0.894283 0.171726 0.175012 -0.00328599 
438.375 0.000681619 -0.000536155 -0.0256464 0.925694 0.423742 0.430076 -0.0063335 
1075.15 0.000144864 -0.00206996 -0.00155429 0.873757 0.172184 0.175014 -0.0028298 
1070.78 -0.00064776 -0.000394481 -0.00324157 0.869661 0.171365 0.175007 -0.00364176 
1361.5 -0.000331454 -8.36377e-05 -0.000424155 0.825947 0.100005 0.101923 -0.00191797 
1512.67 0.000154469 0.000204111 -0.000828906 0.724969 0.0661286 0.0663081 -0.000179476 
1750.86 0.000166639 0.00041167 4.03579e-05 0.567588 0.0169926 0.0145518 0.00244076 
1350.62 -0.000542934 0.000978214 -0.000697868 0.833103 0.103802 0.105657 -0.00185476 
1474.18 -0.000325677 0.000351562 -0.000485471 0.77354 0.0750322 0.0755505 -0.000518267 
1594.32 -0.000265772 0.000170737 -0.000403388 0.651061 0.047984 0.0470778 0.000906232 
2221.39 -0.000181128 3.31082e-05 0.00104108 0.316204 -0.0724584 -0.0800104 0.00755202 
1086.2 8.55001e-05 -0.000504726 -0.00793314 0.877416 0.172436 0.175036 -0.00260046 
1590.96 -7.84443e-05 0.000356397 -0.000979253 0.647938 0.0495463 0.0475102 0.00203606 
1590.75 -7.61022e-05 0.000258926 -0.00109049 0.645249 0.0495195 0.0475108 0.00200872 
717.015 -0.00241122 0.00068723 0.000267991 0.99907 0.294166 0.301644 -0.00747823 
988.171 -0.000879477 -0.000485847 -0.00112398 0.960998 0.197942 0.203777 -0.00583472 
939.528 -0.00190528 -0.000387809 -0.00256294 0.973585 0.214607 0.220722 -0.00611517 
721.762 -0.000269166 -0.000395441 -0.000422514 0.997219 0.295103 0.302505 -0.00740276 
716.539 -0.000695795 0.00107663 -0.000134595 0.989215 0.295325 0.30251 -0.00718537 
1103.3 0.000133007 -0.000126584 -0.000456448 0.92419 0.165599 0.170011 -0.00441199 
1148.19 0.000784656 0.000442965 -0.00046773 0.89418 0.15438 0.158028 -0.00364868 
1648.02 0.000595785 0.000146327 0.000180317 0.659479 0.037966 0.0365578 0.0014082 
1485.22 0.000868877 0.000461318 -0.000647076 0.804183 0.0727605 0.0732592 -0.000498677 
1390.66 -0.000691507 -0.00022724 -0.000677321 0.818888 0.0942072 0.0957464 -0.00153919 
1298.66 -0.000397674 0.00012754 0.000241155 0.875207 0.115997 0.118541 -0.00254383 
1090.36 -4.47938e-05 0.000133742 -0.00117467 0.921032 0.168387 0.172963 -0.00457574 
1059.93 -0.00063088 7.86626e-05 -0.00211044 0.885668 0.173759 0.178143 -0.00438416 
1086.23 -0.000356786 0.00101487 0.00142827 0.918147 0.171066 0.175002 -0.00393592 
1073.83 -0.00117879 3.65747e-05 -0.000931989 0.891741 0.171545 0.176011 -0.00446588 
1056.7 0.000172473 -0.000481465 -0.0051518 0.895003 0.179038 0.183412 -0.00437313 
1664.43 0.000546785 0.000282307 -3.47822e-05 0.638723 0.033986 0.0323775 0.00160858 
1674.34 0.000485975 -0.000145001 0.000521486 0.616533 0.032539 0.0308016 0.00173737 
1922.27 -0.000143447 1.33489e-05 -0.000309191 0.441649 -0.0169513 -0.0212395 0.00428813 
1773.84 -8.6243e-05 0.000371358 0.000374375 0.545662 0.012433 0.00963344 0.00279959 
1836.16 -0.000110247 4.71036e-05 -0.000231784 0.498407 -0.000439894 -0.00394242 0.00350252 
2052.03 -0.000271594 -6.18818e-05 -0.000208405 0.351381 -0.0403201 -0.045791 0.0054709 
1592.51 -1.21225e-06 3.19972e-05 -0.000148925 0.648704 0.047659 0.0467576 0.000901438 
743.658 -0.002257 -0.000263009 -0.000502297 0.995518 0.285765 0.293006 -0.00724132 
767.418 0.00120387 -0.00126461 -0.00216191 0.981752 0.271657 0.279034 -0.00737704 
1201.06 -0.00081817 -0.000362027 0.000763699 0.926951 0.140439 0.143994 -0.00355438 
1079.68 -0.000253688 -0.000490339 -0.00618244 0.876502 0.171526 0.17502 -0.00349396 
2539.8 0.000261469 -0.00012504 9.99754e-05 0.15719 -0.123559 -0.132815 0.00925569 
1472.62 -0.000185398 9.54708e-06 -0.000495441 0.769898 0.0735962 0.0743537 -0.000757495 
1563.27 0.000677803 -0.00055694 0.000245343 0.725493 0.0555691 0.0551373 0.00043181 
1348.13 0.000156712 -6.3172e-05 -0.000431299 0.827775 0.102833 0.104939 -0.00210617 
1070.61 -0.00236891 -0.000790128 -0.00160833 0.921307 0.172962 0.177968 -0.00500636 
717.99 -0.000799155 -0.00123028 0.000275288 0.989227 0.295256 0.302568 -0.00731182 
528.704 -0.00706112 0.00312185 -0.0083785 0.986114 0.364881 0.373423 -0.00854213 
596.626 -0.00145863 -0.000414331 -0.00513592 0.988467 0.338377 0.346694 -0.00831641 
720.564 0.00223888 -0.00223834 0.00114267 0.966955 0.296944 0.302518 -0.00557432 
1088.84 -0.000377221 0.000347565 0.00154069 0.918917 0.172551 0.175002 -0.00245051 
1075.12 -0.000951646 0.00177033 -0.00111328 0.905392 0.171635 0.175015 -0.00337956 
1074.71 -0.00246995 0.000317708 -0.00130126 0.882982 0.171589 0.175015 -0.00342578 
1087.51 7.09139e-05 0.00076918 0.00124925 0.918903 0.172541 0.175006 -0.00246454 
1087.74 -3.69901e-05 0.000850932 0.00149317 0.917905 0.171837 0.175007 -0.00316946 
1085.21 0.000146217 -0.000812556 -0.00767719 0.877872 0.172429 0.175016 -0.002587 
440.642 0.00219691 -0.00342878 -0.0108399 0.984878 0.424773 0.433376 -0.00860325 
442.543 0.00354709 -0.000642568 -0.0114263 0.992462 0.42472 0.433317 -0.00859774 
442.614 0.00204362 -0.00229178 -0.00798103 0.995815 0.430412 0.43896 -0.0085483 
735.54 0.0010698 4.25884e-05 0.000108162 0.969575 0.289411 0.295915 -0.0065039 
2233.55 -0.000129761 -0.000664894 -0.000582728 0.286714 -0.0727089 -0.0800024 0.00729348 
724.608 -0.00247106 -0.00143181 0.000103573 0.971754 0.296271 0.302514 -0.00624324 
720.045 0.000135999 0.00092768 0.00216608 0.974281 0.29589 0.302508 -0.0066177 
1089.17 0.000836235 0.00168203 0.00166674 0.926174 0.172039 0.175003 -0.00296408 
716.877 0.00207239 -0.00195279 0.00153206 0.968003 0.296556 0.302519 -0.00596312 
726.762 -0.0028527 -0.00252015 0.000761921 0.967066 0.2968 0.302513 -0.0057129 
1087.27 -0.000101798 0.000998033 0.00156805 0.920908 0.171705 0.175006 -0.00330095 
1587.98 4.74693e-05 0.00013861 -0.000487322 0.644855 0.0489239 0.0475049 0.001419 
1588.59 3.32957e-05 -0.000239 0.000180049 0.645497 0.0491791 0.0474986 0.0016805 
1075.65 -0.000249926 -0.00226687 -0.00259601 0.876915 0.171859 0.175019 -0.00315917 
728.315 -0.0031093 -0.002752 0.000865272 0.965281 0.297365 0.302519 -0.00515455 
2222.75 -3.35736e-05 0.000173313 0.00087105 0.31625 -0.0730113 -0.0800088 0.00699746 
747.876 -0.0021472 -0.000605233 0.000957669 0.983775 0.282462 0.289404 -0.006942 
727.532 -0.00232342 -3.78665e-05 -0.000947049 0.990423 0.292309 0.299569 -0.00725978 
713.463 -0.00234724 0.00178724 0.00231399 0.973225 0.296229 0.302515 -0.00628626 
725.264 0.00205995 0.00230633 0.000905158 0.968319 0.296589 0.302509 -0.00592067 
459.882 0.00206644 -0.000422951 -0.00584856 0.984937 0.410026 0.418228 -0.00820291 
506.462 0.00111709 -0.00124014 0.00276195 0.982601 0.396304 0.403841 -0.00753634 
737.844 3.45132e-05 -0.00178152 -0.000220364 0.966106 0.289607 0.296066 -0.00645862 
725.081 -0.00168168 -0.00196728 0.000184359 0.970911 0.296314 0.302517 -0.00620283 
502.053 0.00148776 0.0016313 -0.00448459 0.983883 0.386257 0.394374 -0.00811789 
675.9 0.000431396 -0.000757448 -0.00521771 0.970129 0.301439 0.309276 -0.00783722 
450.78 0.00164878 0.00198966 -0.00295913 0.999933 0.425227 0.43381 -0.00858294 
457.118 -0.000189609 0.00089494 0.00120596 0.99986 0.421483 0.430017 -0.00853372 
448.008 0.00430539 -0.000985044 -0.00330063 0.998865 0.428326 0.436894 -0.00856803 
334.081 -0.00063928 0.00380025 -0.000317528 0.999998 0.521621 0.530209 -0.0085888 
454.068 0.00447683 0.00227619 -0.00187859 0.999749 0.42426 0.432771 -0.00851008 
321.873 0.000801955 0.000420275 -0.00340556 1 0.52891 0.537533 -0.00862238 
322.715 -0.00601704 0.000566534 -0.00685772 0.999652 0.519954 0.528801 -0.00884648 
446.36 -0.00182069 -0.000946012 -0.00579904 0.998736 0.420236 0.428966 -0.00872922 
1088.86 -0.000603312 0.000500942 0.00146951 0.918531 0.172278 0.175001 -0.00272311 
1085.69 0.000115512 -0.000569901 -0.00770001 0.874581 0.172242 0.175006 -0.0027641 
1088.75 0.000973172 0.00182665 0.00162944 0.918679 0.172383 0.175002 -0.00261864 
718.229 -0.00274869 0.00278708 0.00142305 0.967263 0.29681 0.302518 -0.00570806 
728.365 0.00225543 0.00236438 0.000434492 0.966989 0.297003 0.302514 -0.00551151 
456.438 -0.000254605 -0.00057402 0.00776351 0.988755 0.422929 0.430002 -0.00707252 
711.799 0.00255709 -0.00118491 0.00154837 0.970377 0.296535 0.30252 -0.00598563 
724.712 -0.00362394 -0.00228102 0.000804357 0.967636 0.296813 0.302512 -0.00569935 
209.154 -0.00355034 7.65759e-05 -0.0016341 1 0.670761 0.679267 -0.00850615 
196.883 -0.000399955 0.000890205 -0.00604952 1 0.676286 0.685029 -0.00874339 
1085.52 0.000417572 -0.000887654 -0.00768596 0.874834 0.172408 0.175004 -0.00259589 
436.069 0.0033733 0.000310556 -0.00226346 0.999554 0.431379 0.439986 -0.00860658 
454.543 0.00331103 -0.000441426 -0.0046205 0.999893 0.421212 0.42979 -0.00857796 
128.119 -0.00168273 0.000542908 0.0156496 1 1.41635 1.424 -0.00764429 
1086.91 -4.32168e-06 -0.000612138 -0.00900364 0.878616 0.171747 0.175022 -0.00327491 
3019.59 -3.51903e-05 -0.000207698 -0.000937556 0.112968 -0.196559 -0.207504 0.0109443 
3793.22 -4.2001e-05 1.45605e-05 -3.43985e-05 0.0728406 -0.307821 -0.320949 0.0131272 
6001.58 7.21048e-06 1.78283e-05 -0.000111671 0.0160548 -0.57505 -0.590005 0.0149546 
3021.31 0.000118659 -9.26982e-05 -0.000885356 0.112911 -0.196705 -0.207505 0.0108 
2233.98 -0.000103683 -0.000826656 -0.000686907 0.28889 -0.0731829 -0.0800015 0.00681864 
1588.45 9.12002e-05 0.000252011 -0.000119519 0.645307 0.0491107 0.0475013 0.00160946 
3023.02 4.20194e-05 -0.000105556 -0.000813178 0.121815 -0.19703 -0.207504 0.0104743 
3801.3 -4.66162e-05 2.96869e-05 -0.000115178 0.0735258 -0.309072 -0.321905 0.0128331 
3817.82 -3.58086e-05 4.47767e-05 -0.000189773 0.0781621 -0.311485 -0.324313 0.0128281 
1072.8 0.000824655 0.000117728 -0.00330359 0.877175 0.172277 0.175011 -0.0027344 
727.519 0.00259628 0.00277862 0.00106335 0.967486 0.29784 0.302515 -0.00467473 
1080.16 9.83917e-08 -0.000512824 -0.00584297 0.874815 0.172396 0.175029 -0.00263296 
719.251 -0.00249399 0.00259714 0.00188333 0.967484 0.297837 0.302525 -0.00468834 
1072.46 -0.000217447 -0.00101371 -0.00339499 0.877195 0.17229 0.17501 -0.00272063 
121.576 0.00590514 0.000776932 0.00595581 1 1.95437 1.96154 -0.00717373 
6012.24 0.000123717 -8.75166e-05 -7.75324e-05 0.0491602 -0.576969 -0.5917 0.0147303 
457.208 -0.000150458 4.0817e-05 0.00684843 0.987997 0.424212 0.430011 -0.00579914 
727.524 -0.00264749 -0.00256785 0.000794314 0.967516 0.297891 0.302518 -0.0046271 
1072.75 -0.000688228 -0.000732852 -0.00337852 0.87724 0.172319 0.175011 -0.00269187 
121.719 0.00260757 -0.00171855 0.00418709 1 1.95265 1.95997 -0.00731924 
1080.48 7.34454e-05 -0.000147823 -0.00620323 0.874866 0.172429 0.175025 -0.00259547 
719.194 0.0026807 -0.00247469 0.000944098 0.967511 0.297882 0.302524 -0.00464209 
1074.84 -0.00198686 0.000292322 -0.00176947 0.87723 0.172313 0.175019 -0.00270581 
5939.69 7.59399e-05 8.28709e-06 -9.71258e-05 0.0211555 -0.567586 -0.582475 0.014889 
1085.66 0.000394235 -0.000874058 -0.00768431 0.874938 0.172477 0.175004 -0.00252685 
1087.85 0.000361735 0.00079982 0.00131089 0.918888 0.172531 0.175006 -0.00247528 
1080.37 -8.98899e-05 -0.000408369 -0.00590309 0.881123 0.172463 0.175028 -0.00256547 
414.397 0.00173527 5.40004e-05 -0.00983951 0.933549 0.420175 0.427673 -0.00749736 
1080.38 1.31386e-06 -0.000175026 -0.00592318 0.867531 0.171678 0.175024 -0.00334632 
6005.15 -5.70939e-05 9.49484e-05 6.14184e-05 0.00378646 -0.574256 -0.590003 0.0157474 
146.009 -0.00256582 -0.00102816 -0.0146328 0.951523 0.928924 0.935705 -0.00678114 
1075.07 -0.000140061 0.00163983 -0.0016171 0.877265 0.172336 0.175017 -0.00268149 
1080.52 -7.10122e-05 -0.000470497 -0.00604304 0.874909 0.172458 0.175024 -0.00256597 
719.421 -0.0026055 0.00260813 0.000294394 0.967521 0.2979 0.302521 -0.00462085 
9869.63 7.12585e-05 2.03022e-06 -0.00059896 0 -0.984517 -0.999998 0.0154807 
9861.65 9.1625e-05 5.36249e-05 -0.000808094 0 -0.984441 -0.999998 0.015557 
6042.29 -7.9167e-05 -0.000100984 -4.5266e-06 0.0292495 -0.580112 -0.595037 0.0149245 
727.608 0.002613 0.00272315 0.00103491 0.967538 0.297928 0.302515 -0.00458754 
1073.21 0.000213456 -0.00061343 -0.00367408 0.877287 0.172351 0.17501 -0.00265988 
1080.69 2.92514e-05 -9.67851e-05 -0.00608314 0.874878 0.172437 0.175024 -0.0025862 
9871.52 -5.40755e-05 0.000165305 -0.000645327 0 -0.984786 -0.999998 0.0152118 
1080.57 -7.67959e-05 -0.000436361 -0.00605002 0.874873 0.172434 0.175024 -0.00259002 
1072.95 0.000146709 -0.000213501 -0.00355685 0.877271 0.17234 0.175009 -0.00266851 
1088.63 0.00116922 0.00164274 0.00162883 0.918852 0.172505 0.175003 -0.0024981 
1074.98 9.79625e-05 -0.00251263 -0.00251348 0.877211 0.1723 0.175019 -0.00271851 
1086.44 0.00012817 -0.000521659 -0.00861986 0.874873 0.172434 0.175039 -0.0026047 
1074.76 0.00170853 0.000242149 -0.00122404 0.877221 0.172307 0.175016 -0.00270947 
1088.58 -0.000667188 0.000521754 0.00143616 0.918891 0.172532 0.175002 -0.00246951 
1073.13 -4.26825e-05 0.000213633 -0.00340338 0.877275 0.172342 0.17501 -0.00266772 
6077.79 -1.08677e-05 1.47299e-05 -0.000154813 0.0135207 -0.583511 -0.59852 0.0150097 
9876.41 -2.36264e-05 -1.59856e-05 -0.000339366 0 -0.984631 -0.999997 0.0153669 
1085.59 5.17153e-05 -0.000563076 -0.00771546 0.874924 0.172468 0.175005 -0.00253697 
1072.89 -0.000425888 -0.000214336 -0.00349585 0.877288 0.172351 0.17501 -0.00265947 
1088.63 0.000921461 0.00183418 0.001619 0.918918 0.172552 0.175002 -0.00245017 
1075.19 2.77299e-05 -0.00207403 -0.00154037 0.877278 0.172345 0.175015 -0.00266987 
1086.67 0.000115102 -0.000561832 -0.00858786 0.874913 0.172461 0.175036 -0.00257549 
1074.94 0.002053 0.000110012 -0.00211807 0.877274 0.172342 0.175018 -0.00267591 
1087.53 0.000146351 0.000768526 0.00131047 0.918893 0.172534 0.175005 -0.00247081 
1075.21 -0.000374267 0.00159404 -0.000689481 0.877259 0.172332 0.175017 -0.00268433 
1590.06 3.26414e-05 -0.000111087 -0.000963692 0.646745 0.04958 0.0475099 0.00207015 
1591.25 -0.000109786 -0.000111337 0.000209536 0.646731 0.0495751 0.0474979 0.00207714 
1072.69 -0.000493458 -0.0010197 -0.00321689 0.877244 0.172322 0.175009 -0.00268671 
1087.38 0.000165996 0.000993337 0.00162212 0.918898 0.172538 0.175009 -0.002471 
1088.59 -0.000551647 0.000385891 0.00149456 0.918871 0.172519 0.175 -0.00248106 
1085.4 0.000144058 -0.000803742 -0.00765866 0.874899 0.172451 0.175016 -0.0025642 
9875.47 0.000321697 0.000114397 -0.000622105 0 -0.984108 -0.999998 0.0158898 
3722.4 -3.68292e-06 -6.22224e-05 0.000143455 0.0909705 -0.298878 -0.311623 0.0127451 
1590.56 -1.6863e-05 3.00821e-06 0.000706927 0.646546 0.0495228 0.0474929 0.00202989 
3820.68 2.53091e-05 -3.44565e-05 -0.000168619 0.0755529 -0.312049 -0.324888 0.0128393 
1588.4 -0.000159216 0.000113307 -0.000322476 0.646385 0.0495278 0.0475031 0.00202467 
1587.97 -8.42925e-06 0.000165424 -0.000313982 0.646517 0.0495233 0.0475033 0.00201997 
2233.71 -0.000153431 -0.00081114 -0.000787197 0.289771 -0.0726711 -0.0800028 0.00733171 
1589.07 -6.71137e-05 0.00018586 -0.000991668 0.646165 0.0495243 0.0475101 0.0020142 
1588.68 5.28399e-05 -0.000292063 -0.000143486 0.646137 0.0495289 0.0475019 0.00202703 
1591.08 0.000102311 -2.07869e-05 0.000570863 0.646633 0.0495429 0.0474941 0.00204887 
1588.3 5.56106e-05 2.45397e-05 -3.76977e-05 0.646631 0.0495641 0.0475008 0.00206332 
1087.59 0.000196058 0.000775394 0.00129926 0.918722 0.172413 0.175005 -0.00259257 
1075.12 -0.000270815 0.00158661 -0.000704515 0.877098 0.172226 0.175016 -0.00279004 
1080.54 -4.07951e-05 -0.00047738 -0.00602139 0.874739 0.172346 0.175023 -0.00267696 
1072.83 0.000182168 -0.000200779 -0.00354146 0.877158 0.172265 0.175009 -0.00274309 
1087.74 0.000404437 0.000806929 0.00131075 0.918803 0.17247 0.175007 -0.00253636 
1073.11 0.000247897 -0.00061989 -0.00371593 0.877206 0.172297 0.175011 -0.00271406 
1589.77 7.39864e-05 -6.3855e-05 -0.00099998 0.646428 0.0495153 0.0475101 0.00200518 
1590.59 -7.56915e-05 5.01109e-05 0.000282635 0.646544 0.0495223 0.0474972 0.00202509 
1080.58 3.01298e-05 -9.63286e-05 -0.00611001 0.874816 0.172396 0.175024 -0.00262785 
1074.83 -0.00189721 0.000628044 -0.000855956 0.877203 0.172295 0.175019 -0.00272346 
1087.42 7.81844e-05 0.000731672 0.00124114 0.918861 0.172512 0.175006 -0.00249427 
1072.85 0.000782557 0.000419676 -0.0031161 0.877211 0.172301 0.175011 -0.00271027 
1088.52 -0.000454356 0.000560558 0.00166482 0.918804 0.172471 0.175002 -0.00253131 
1085.28 0.000323265 -0.000636055 -0.00768229 0.874869 0.172432 0.175017 -0.00258558 
1088.49 0.00107349 0.00180127 0.00162691 0.918855 0.172507 0.174999 -0.00249241 
2958.81 -0.000246181 -7.30146e-05 -0.00075135 0.130378 -0.187504 -0.197914 0.01041 
3856.63 2.57765e-05 2.29266e-05 -0.00020677 0.072495 -0.316813 -0.329913 0.0130999 
3895.34 -2.76661e-05 2.94087e-05 -0.000280098 0.0679462 -0.32161 -0.335008 0.0133979 
1589.61 -6.75306e-06 8.46349e-05 -0.000847623 0.646389 0.0494553 0.0475085 0.00194672 
6036.08 1.03963e-05 -2.96805e-05 -0.000128937 0.01254 -0.579026 -0.594042 0.0150164 
1590.99 0.000128288 -0.000164774 0.000355943 0.646482 0.0494877 0.0474963 0.00199135 
3855.01 -3.1258e-06 1.42994e-05 -0.000282662 0.0729914 -0.316292 -0.329498 0.0132068 
2233.87 -0.000117847 -0.000541858 -0.000624543 0.289393 -0.0727277 -0.0800024 0.00727473 
1590.8 -0.000159377 0.000215143 -0.00111672 0.646474 0.0495077 0.0475111 0.00199664 
1588 4.6484e-05 0.000296852 -0.00012258 0.646431 0.0495067 0.0475012 0.00200546 
2234.03 -0.000133782 -0.000517452 -0.000847184 0.288591 -0.0727754 -0.0800025 0.00722708 
1590.82 -0.000128611 0.000547112 -0.00122973 0.646283 0.0494179 0.0475127 0.00190517 
1588.47 3.88638e-05 -0.000173482 0.000200744 0.646312 0.049428 0.0474984 0.00192961 
1590.89 -0.000128086 -0.000367977 0.000504377 0.646402 0.0494598 0.0474949 0.0019649 
1588.25 1.54774e-05 -0.000164248 -0.000417373 0.646484 0.0494885 0.0475041 0.00198437 
1088.22 9.80124e-05 0.00101052 0.00153827 0.918089 0.171966 0.175007 -0.00304052 
142.851 -0.00671755 -0.00174809 -0.00737134 0.987822 0.901265 0.909008 -0.00774352 
1086.96 0.000107234 -0.000526961 -0.00811037 0.874215 0.172001 0.17504 -0.00303929 
437.16 0.000200209 -0.000372292 -0.0276863 0.937903 0.423916 0.430061 -0.00614502 
128.452 -0.00457517 -0.000576771 0.00573029 0.999703 1.36599 1.3738 -0.00780421 