<VTKFile type="UnstructuredGrid">
<UnstructuredGrid>
<Piece NumberOfPoints="3142" NumberOfCells="15156">
<Points>
<DataArray type="Float64" Name="coordinates" NumberOfComponents="3" format="ascii">
0 0 0 
10 0 0 
10 10 0 
0 10 0 
0 0 10 
10 0 10 
10 10 10 
0 10 10 
4.48855 0 0 
2.75914 0 0 
1.23783 0 0 
0.595022 0 0 
0.324416 0 0 
0.920311 0 0 
0.774228 0 0 
1.06639 0 0 
1.99873 0 0 
1.5687 0 0 
3.60298 0 0 
6.30327 0 0 
5.39591 0 0 
7.23242 0 0 
8.15828 0 0 
9.07914 0 0 
10 4.79183 0 
10 1.91864 0 
10 0.95932 0 
10 2.87842 0 
10 3.83512 0 
10 6.67393 0 
10 5.75569 0 
10 7.57392 0 
10 8.38265 0 
10 9.19133 0 
5.21612 10 0 
8.08182 10 0 
9.04205 10 0 
7.12158 10 0 
6.17267 10 0 
3.33519 10 0 
4.24431 10 0 
2.48869 10 0 
1.64854 10 0 
0.824272 10 0 
0 5.22944 0 
0 8.08228 0 
0 9.04114 0 
0 7.12158 0 
0 6.19339 0 
0 3.46609 0 
0 4.34493 0 
0 2.07926 0 
0 2.64429 0 
0 0.825439 0 
0 1.62567 0 
0 1.16928 0 
0 1.37134 0 
0 1.01024 0 
0 0.640636 0 
0 0.357333 0 
0 0 4.51643 
0 0 2.8432 
0 0 1.33362 
0 0 0.592829 
0 0 0.324416 
0 0 0.957662 
0 0 0.795476 
0 0 1.11985 
0 0 2.11774 
0 0 1.72568 
0 0 3.66712 
0 0 6.28511 
0 0 5.40077 
0 0 7.21792 
0 0 8.17426 
0 0 9.08713 
10 0 4.79274 
10 0 1.91864 
10 0 0.958862 
10 0 2.87842 
10 0 3.83558 
10 0 6.67393 
10 0 5.75569 
10 0 7.54265 
10 0 8.40874 
10 0 9.19604 
10 10 4.79274 
10 10 1.91887 
10 10 0.959435 
10 10 2.87842 
10 10 3.83558 
10 10 6.63093 
10 10 5.75569 
10 10 7.49704 
10 10 8.36316 
10 10 9.18158 
0 10 4.78115 
0 10 1.90796 
0 10 0.9375 
0 10 2.87842 
0 10 3.82979 
0 10 6.64621 
0 10 5.71368 
0 10 7.56944 
0 10 8.41136 
0 10 9.20568 
4.79274 0 10 
1.91887 0 10 
0.959435 0 10 
2.87842 0 10 
3.82979 0 10 
6.66481 0 10 
5.75569 0 10 
7.50416 0 10 
8.34038 0 10 
9.17019 0 10 
10 4.79151 10 
10 1.91864 10 
10 0.95932 10 
10 2.87842 10 
10 3.82733 10 
10 6.66481 10 
10 5.75569 10 
10 7.52701 10 
10 8.38921 10 
10 9.19461 10 
5.22376 10 10 
8.09204 10 10 
9.0625 10 10 
7.12158 10 10 
6.17267 10 10 
3.37427 10 10 
4.26409 10 10 
2.50399 10 10 
1.63372 10 10 
0.80552 10 10 
0 5.22278 10 
0 8.08182 10 
0 9.04205 10 
0 7.12158 10 
0 6.19339 10 
0 3.32607 10 
0 4.24811 10 
0 2.45735 10 
0 1.58864 10 
0 0.794319 10 
5.06172 1.84823 0 
1.93197 1.9455 0 
1.85207 5.25968 0 
0.565642 9.23812 0 
1.28499 9.10996 0 
1.19046 5.84865 0 
2.41897 7.42925 0 
3.56538 5.11685 0 
0.902622 4.78051 0 
4.76025 7.4345 0 
5.18578 2.86197 0 
7.29671 4.08095 0 
3.69716 2.10302 0 
2.22107 3.51221 0 
1.11064 2.32541 0 
8.31034 9.23698 0 
5.91969 1.08688 0 
2.6221 0.937451 0 
4.7655 0.868448 0 
8.63203 1.39954 0 
9.31993 8.957 0 
9.20389 0.78617 0 
0.558294 0.529614 0 
2.23298 9.17701 0 
0.730732 6.44828 0 
2.81595 8.40641 0 
1.83392 8.19945 0 
2.14153 6.33763 0 
0.680862 3.98422 0 
5.71162 8.97299 0 
5.40405 6.03069 0 
3.92674 7.11319 0 
4.42905 4.50229 0 
8.21979 3.8525 0 
5.60756 4.96383 0 
6.42399 4.15135 0 
8.99879 4.58087 0 
4.32653 2.43377 0 
3.65754 0.69811 0 
1.52901 4.21826 0 
2.42211 2.57041 0 
2.54735 4.65917 0 
0.533203 2.16935 0 
1.67477 2.54959 0 
7.58348 9.41283 0 
6.67568 8.16766 0 
8.86103 7.659 0 
6.87915 2.75618 0 
2.19672 0.432836 0 
3.24874 1.50311 0 
4.11579 1.57776 0 
8.17313 0.65572 0 
9.32964 1.71822 0 
0.305407 0.784989 0 
0.734462 0.328981 0 
0.759777 1.44421 0 
0.324075 0.58147 0 
0.511133 0.270634 0 
1.51582 7.03639 0 
3.32842 9.34571 0 
0.734822 8.03765 0 
2.79405 5.72017 0 
4.52877 9.19719 0 
4.55188 5.55558 0 
3.33234 7.75387 0 
4.61049 6.54609 0 
3.06039 6.74817 0 
9.15022 3.4339 0 
6.32002 5.73858 0 
5.3274 3.86896 0 
9.23441 5.61781 0 
3.09976 2.32887 0 
3.3225 4.12787 0 
0.247704 1.74691 0 
0.968693 3.10868 0 
5.61864 7.8384 0 
7.547 7.97671 0 
7.53768 8.72298 0 
7.70358 6.49612 0 
9.49131 7.87738 0 
6.91078 3.52037 0 
7.82945 1.55456 0 
6.90008 1.81679 0 
6.03603 2.26862 0 
1.84231 0.407881 0 
0.113189 0.947541 0 
0.434117 0.731429 0 
0.744377 0.127786 0 
1.38072 1.91218 0 
0.987256 1.93517 0 
0.379822 1.37328 0 
0.291782 0.327687 0 
4.83017 8.359 0 
3.75149 6.13334 0 
9.24381 2.50183 0 
3.69562 2.67028 0 
4.20581 3.36769 0 
0.505509 1.61266 0 
5.43739 6.91369 0 
8.28853 8.33205 0 
6.82104 9.21163 0 
8.3292 5.62344 0 
8.57569 6.57968 0 
7.17645 7.27663 0 
6.7937 6.44607 0 
7.57369 3.26248 0 
8.54651 2.10895 0 
7.0587 0.84977 0 
7.69422 2.40863 0 
6.14005 3.24614 0 
1.61322 0.219253 0 
0.0877139 1.06704 0 
0.163358 0.785439 0 
1.09317 0.125969 0 
0.931107 0.167099 0 
1.08448 1.69661 0 
2.05152 1.34437 0 
0.810587 1.70971 0 
0.596778 0.731724 0 
0.737491 0.541694 0 
0.493479 0.877625 0 
0.74835 1.22005 0 
0.225773 1.50572 0 
0.576574 1.34691 0 
0.495724 1.10064 0 
0.25729 1.15583 0 
4.13533 7.83735 0 
3.15378 3.10868 0 
6.05135 6.46247 0 
8.04201 7.39066 0 
7.83752 4.78704 0 
9.45178 6.81963 0 
6.29673 7.18257 0 
7.29793 5.6637 0 
8.43645 2.95284 0 
1.35801 0.167166 0 
1.92667 0.811147 0 
2.5627 1.77162 0 
1.61551 1.48933 0 
0.621193 0.925217 0 
0.906511 0.363334 0 
1.19282 0.292079 0 
0.762197 0.787844 0 
0.524446 0.99438 0 
0.684463 1.07081 0 
0.986002 1.46586 0 
0.583315 1.06284 0 
0.428518 1.00558 0 
0.59371 1.17668 0 
0.461589 1.22715 0 
0.188687 1.05298 0 
0.340669 1.23827 0 
0.383037 1.1271 0 
0.221602 1.30449 0 
0.125882 1.18683 0 
3.83433 8.50544 0 
6.79654 4.89938 0 
1.19818 0.161658 0 
1.02028 0.241467 0 
1.02926 0.457922 0 
1.57411 0.411035 0 
1.62406 0.598932 0 
1.11096 0.226482 0 
1.25639 1.47454 0 
0.31052 1.02796 0 
1.06056 0.323967 0 
0.903812 0.520977 0 
1.10713 0.377724 0 
1.45352 0.498891 0 
1.6533 1.10973 0 
0.896701 1.14675 0 
0.237475 0.932561 0 
1.33746 0.330221 0 
1.41139 1.24283 0 
1.55326 0.80757 0 
1.08632 1.27557 0 
0.80891 1.05592 0 
0.856301 0.919437 0 
0.914029 1.29273 0 
0.368253 0.893358 0 
1.17743 0.457332 0 
1.15418 1.15106 0 
1.43719 0.635197 0 
0.99335 1.18056 0 
0.928806 1.02642 0 
0.879464 0.648953 0 
0.738777 0.951822 0 
1.06969 1.12139 0 
1.36142 0.963165 0 
1.23083 1.24884 0 
1.31967 0.545708 0 
0.974072 0.575959 0 
0.984839 1.09994 0 
1.24592 1.10141 0 
1.09407 0.846116 0 
1.07579 0.588379 0 
1.0159 0.789865 0 
1.18767 0.630468 0 
0.989544 0.905777 0 
1.18791 0.953103 0 
0.991643 0.685911 0 
0.909569 0.788837 0 
1.32476 0.722139 0 
1.09559 0.724492 0 
1.03174 1.02587 0 
1.20857 0.806581 0 
1.08778 0.951801 0 
1.12954 1.05077 0 
2.25279 0 2.05765 
4.63849 0 1.82098 
1.67719 0 5.07324 
5.10472 0 4.84442 
0.257854 0 0.248627 
0.486042 0 0.458433 
1.84212 0 1.04795 
1.25146 0 2.13374 
2.39237 0 1.01549 
1.31492 0 3.02601 
3.91745 0 0.949669 
3.6841 0 1.94762 
2.08199 0 3.3919 
4.75888 0 3.43747 
3.44221 0 4.54396 
0.769318 0 4.71218 
5.01309 0 0.944224 
6.98657 0 4.37178 
4.70703 0 7.93477 
0.853552 0 5.73222 
6.0435 0 0.884533 
8.5787 0 1.37896 
1.2369 0 8.76143 
9.17861 0 0.772371 
0.72965 0 9.27776 
8.81994 0 8.8915 
9.48393 0 9.32623 
0.523893 0 0.199847 
0.213397 0 0.509745 
0.995861 0 0.720989 
2.0494 0 1.4899 
0.615973 0 2.47253 
1.39004 0 1.60489 
3.00683 0 0.617212 
2.40545 0 0.437576 
2.90611 0 2.0799 
1.86768 0 2.53607 
2.5662 0 2.73738 
4.97726 0 2.62242 
4.48247 0 4.30797 
2.64242 0 5.31175 
1.47866 0 4.02737 
0.596981 0 3.60019 
8.75465 0 3.87977 
5.95571 0 4.69269 
6.24722 0 3.76219 
8.96804 0 4.79559 
3.86587 0 8.90739 
4.61405 0 6.75685 
4.07704 0 6.15817 
4.92504 0 8.94424 
0.831044 0 6.72993 
6.52395 0 2.8397 
8.14947 0 0.655652 
9.26352 0 1.63396 
0.669971 0 8.51792 
1.51205 0 9.30095 
8.15553 0 9.28678 
9.42308 0 8.54361 
0.730171 0 0.137376 
0.16695 0 0.747077 
1.3597 0 0.252248 
1.59595 0 0.252289 
1.56338 0 0.736178 
0.717423 0 0.537314 
1.2977 0 0.788537 
1.27653 0 0.671916 
0.491415 0 0.876253 
1.16045 0 1.08758 
0.780902 0 1.81228 
1.73871 0 1.86974 
3.06869 0 1.36774 
1.87017 0 0.555182 
2.50526 0 1.59655 
4.21371 0 2.69465 
3.86343 0 3.56817 
2.37424 0 4.33311 
9.32247 0 3.25498 
7.14481 0 6.61112 
5.6166 0 3.14569 
5.37295 0 4.05356 
5.25688 0 5.64948 
3.49541 0 5.48209 
4.31033 0 5.17767 
5.58267 0 9.36737 
7.02534 0 3.46597 
7.773 0 1.6117 
6.78155 0 1.80053 
0.714506 0 7.67733 
7.40628 0 9.55507 
9.55616 0 7.5931 
0.872143 0 0.090229 
0.0915589 0 0.879797 
1.28965 0 0.122347 
0.862815 0 0.56082 
1.16735 0 0.786125 
1.10688 0 0.691166 
0.247614 0 0.99156 
0.787299 0 0.736281 
0.583868 0 0.694627 
0.372233 0 0.689265 
1.10027 0 0.875741 
1.2208 0 1.00097 
0.845624 0 0.94579 
1.35128 0 0.939491 
1.22721 0 1.35755 
0.36893 0 1.84316 
2.94802 0 3.55763 
3.36007 0 2.77127 
9.27587 0 2.48605 
6.75818 0 5.46086 
5.93152 0 6.3724 
7.7009 0 7.4858 
8.03478 0 5.65157 
2.32233 0 9.16513 
6.41254 0 7.80072 
1.85999 0 6.19884 
1.55822 0 7.26816 
3.00507 0 6.21888 
7.79593 0 3.68158 
8.51767 0 2.17955 
7.04614 0 0.826534 
7.567 0 2.6614 
5.65816 0 2.01017 
6.44247 0 9.37717 
9.2889 0 6.69374 
1.12598 0 0.11573 
1.15256 0 0.403439 
1.00294 0 0.614629 
0.116704 0 1.02204 
0.0917958 0 1.18294 
0.185436 0 0.898351 
0.375197 0 0.984136 
0.906041 0 0.699003 
0.306474 0 0.86444 
1.03817 0 0.797918 
1.09714 0 0.990579 
1.20271 0 0.895651 
0.969364 0 1.0383 
0.827619 0 1.43472 
0.996081 0 0.908448 
1.41701 0 1.31131 
1.30352 0 1.1297 
1.14705 0 1.18957 
0.273521 0 1.45563 
5.42992 0 7.24208 
7.9498 0 8.39487 
8.726 0 7.75172 
7.88303 0 4.64019 
3.11456 0 8.68846 
6.9691 0 7.42078 
6.26276 0 7.22502 
6.0629 0 8.47883 
7.18145 0 8.86168 
1.36841 0 8.11041 
3.50566 0 6.96482 
8.55154 0 3.05077 
9.10724 0 5.72904 
0.981034 0 0.105508 
0.924271 0 0.332113 
0.867631 0 1.16469 
1.07784 0 1.60186 
0.925921 0 0.802361 
1.65968 0 1.40268 
0.141864 0 1.31368 
7.0717 0 8.07738 
2.12699 0 7.83867 
5.63336 0 7.93761 
1.90509 0 8.60141 
8.34321 0 6.65944 
1.16107 0 0.555579 
1.42562 0 0.489547 
1.05102 0 0.334255 
0.881769 0 0.204078 
0.733973 0 0.3301 
1.0196 0 0.223012 
1.00204 0 0.462789 
0.507105 0 1.24256 
1.03374 0 1.12711 
0.200411 0 1.12553 
2.48412 0 7.02239 
2.47822 0 8.41781 
1.16642 0 0.241839 
0.857217 0 0.438442 
0.483561 0 1.02672 
0.700571 0 1.06088 
0.543184 0 1.47511 
1.03018 0 1.31258 
1.52283 0 1.09455 
0.394655 0 1.17698 
3.80627 0 7.84012 
2.92212 0 7.79539 
0.568267 0 1.11687 
0.580106 0 0.997932 
[...]
<PointData>
<DataArray type="Float64" Name="proteus_solution" NumberOfComponents="8" format="ascii">
16035.6 0.000252285 0.000297661 -0.000375951 6.6831e-05 -1.09711 -1.00244 -0.0946655 
163.762 -1.25012e-06 1.62034e-06 -7.20181e-07 1 8.84504 8.97605 -0.131005 
164.348 2.73452e-07 7.48637e-10 5.26739e-07 1 12.6336 12.7647 -0.131009 
165.879 -1.19666e-06 2.50553e-06 1.47536e-06 1 8.82823 8.95924 -0.13101 
45.1509 -2.30017e-06 -8.40651e-07 -2.81121e-06 1 8.85979 8.99079 -0.131002 
44.9235 -1.11958e-06 -8.06968e-07 7.48116e-07 1 12.6684 12.7995 -0.131002 
45.5167 -1.02e-07 -4.53631e-07 4.48203e-07 1 15.7074 15.8669 -0.131006 
45.1604 -3.87949e-07 -8.64164e-07 4.97702e-07 1 12.6553 12.7901 -0.131007 
154.238 0.000747368 2.34525e-05 0.000130817 0.999995 3.35567 3.48664 -0.130974 
94.384 0.00581196 4.49101e-05 0.000151407 0.999957 1.64032 1.77101 -0.130694 
3584.24 0.0068097 0.000464825 -0.000279932 0.813802 0.121143 0.239422 -0.118279 
14889.7 0.00237477 0.000139623 -0.000117312 0.000254129 -0.517617 -0.422306 -0.0953113 
27686.8 0.00110755 0.000171558 -0.000216109 -1.15128e-05 -0.808864 -0.71405 -0.0948139 
9104.88 0.00451123 0.000150009 -9.93061e-05 0.0518358 -0.185516 -0.0846399 -0.100876 
6321.23 0.003442 0.00028482 -0.000240804 -0.00325335 -0.332941 -0.235752 -0.0971891 
5701.32 0.00554144 0.000171022 -2.36374e-05 0.366201 -0.0417246 0.066391 -0.108116 
324.718 0.0117626 -0.000589824 -9.01017e-05 0.999585 0.876174 1.00585 -0.129674 
1030.53 0.00876351 -3.86484e-05 0.000181004 0.997102 0.445115 0.572304 -0.127189 
210.77 0.00198755 -0.000253731 0.000275679 1.00001 2.48581 2.61672 -0.130913 
171.045 0.000213034 9.9038e-06 -1.04436e-05 1 5.15884 5.28984 -0.131 
172.252 0.000377578 -4.14086e-05 -2.87445e-05 1 4.25024 4.38124 -0.130993 
167.161 0.000118899 -4.15431e-06 -5.04963e-07 1 6.08962 6.22062 -0.131003 
165.749 6.33244e-05 -7.40869e-06 -5.66268e-06 1 7.01508 7.14608 -0.131004 
163.535 1.7865e-05 2.13149e-06 -7.2104e-07 1 7.92737 8.05838 -0.131005 
163.589 1.73485e-06 9.41899e-06 2.18646e-06 1 9.65784 9.78885 -0.131007 
163.215 3.91443e-06 7.35794e-06 4.22025e-06 1 8.92944 9.06045 -0.131005 
164.008 4.75822e-06 6.5416e-06 3.51616e-06 1 8.8511 8.9821 -0.131005 
163.216 1.94196e-06 8.43265e-06 1.53536e-06 1 9.09256 9.22356 -0.131006 
163.345 7.71518e-07 1.01217e-05 -3.30384e-07 1 9.33167 9.46268 -0.131007 
163.938 6.23577e-07 7.23276e-06 1.16926e-06 1 10.5568 10.6878 -0.131008 
163.855 1.79397e-06 9.00856e-06 1.20051e-06 1 10.0858 10.2169 -0.131008 
164.019 6.49076e-07 5.92602e-06 1.20777e-06 1 11.0582 11.1892 -0.131008 
164.205 6.10739e-07 3.95225e-06 7.94848e-07 1 11.5421 11.6731 -0.131009 
164.358 8.323e-07 2.07785e-06 6.93657e-07 1 12.0761 12.2072 -0.131009 
164.723 9.8386e-06 -6.72099e-07 -2.61002e-08 1 9.8369 9.96791 -0.131009 
164.3 3.75399e-06 1.66203e-07 7.63516e-07 1 11.3556 11.4866 -0.131009 
164.291 2.30987e-06 1.22801e-07 2.05039e-07 1 11.9726 12.1037 -0.131009 
164.298 6.86369e-06 6.07935e-08 1.80497e-06 1 10.7968 10.9278 -0.131009 
164.591 9.02976e-06 -5.99303e-07 -1.42421e-07 1 10.2759 10.407 -0.131009 
165.279 9.10637e-06 2.88606e-06 3.23949e-06 1 9.20489 9.3359 -0.13101 
164.833 1.05087e-05 8.09276e-07 1.89702e-06 1 9.48681 9.61782 -0.13101 
165.578 8.66077e-06 4.38822e-06 2.18163e-06 1 9.02391 9.15492 -0.13101 
165.277 7.03109e-06 1.09866e-06 1.12405e-06 1 8.91647 9.04748 -0.13101 
165.564 4.38052e-06 1.35359e-06 6.49195e-07 1 8.84681 8.97782 -0.13101 
171.107 -1.31034e-05 0.000425033 7.05832e-07 0.999993 4.06003 4.19103 -0.131001 
165.785 -4.85329e-06 5.12124e-05 2.91029e-06 1 6.92011 7.05112 -0.13101 
165.494 1.88382e-06 1.91179e-05 -1.3276e-06 1 7.88022 8.01123 -0.13101 
164.76 1.98778e-06 8.38242e-05 3.99032e-06 1 5.95851 6.08952 -0.131008 
168.76 -8.67928e-06 0.000189831 -2.18244e-06 1 5.02806 5.15906 -0.131006 
136.747 -2.96102e-05 0.00248225 0.000442726 0.999755 2.34599 2.47689 -0.130903 
212.814 -3.49605e-05 0.00103713 -6.15519e-05 1.00004 3.21232 3.34331 -0.130984 
458.564 -0.00105892 0.0109835 0.000225226 0.997727 0.954686 1.08472 -0.130036 
125.57 -0.000362332 0.0056978 0.000312461 1.00045 1.51971 1.65034 -0.130632 
5088.87 7.53075e-05 0.00371234 -0.000139146 0.014574 -0.270141 -0.172655 -0.0974859 
989.528 0.000636221 0.00878707 -0.00105341 0.999172 0.500748 0.628907 -0.128159 
4769.53 8.7963e-06 0.00638511 -9.18574e-05 0.718643 0.0553479 0.169986 -0.114638 
1723.8 0.000570944 0.00776175 -0.000306818 0.97568 0.249922 0.373372 -0.12345 
4441.21 0.000244806 0.00506645 -0.000163774 0.17318 -0.0941073 0.0102389 -0.104346 
12658.8 0.000179348 0.00257708 -0.000144237 0.00145335 -0.453288 -0.358152 -0.0951358 
27409.1 0.000180301 0.00134925 -0.000130443 -0.000105108 -0.737657 -0.642864 -0.0947938 
114.366 -5.16631e-05 -0.00010807 -0.000819364 1 3.40038 3.53134 -0.130959 
74.718 0.000112337 -0.000123327 -0.00260977 1.00003 1.72421 1.85491 -0.130705 
-76.3329 6.27264e-05 0.000100118 -0.00347995 0.887737 0.214867 0.336874 -0.122008 
2729.31 5.58112e-05 -3.89241e-05 -0.00236405 -0.000135463 -0.508452 -0.413067 -0.0953854 
507.401 1.8907e-05 -1.47763e-05 -0.00158443 -8.74677e-05 -0.783898 -0.689057 -0.0948416 
2106.63 -4.89117e-05 2.98829e-05 -0.00303409 0.0784732 -0.144844 -0.0423366 -0.102507 
1734.46 1.12825e-05 2.91813e-05 -0.00279739 0.00588285 -0.303081 -0.205709 -0.0973716 
1576.9 -2.3072e-05 1.20504e-05 -0.00327811 0.545963 0.00952758 0.121033 -0.111506 
-0.5592 -0.000141078 5.13588e-05 -0.00360658 0.999797 0.99631 1.12626 -0.129951 
-30.0106 0.000157891 -0.000168961 -0.0035871 1.00718 0.602443 0.730917 -0.128474 
103.815 4.16926e-05 -9.00948e-05 -0.00139771 1.00001 2.54997 2.68087 -0.130904 
84.8476 -2.16963e-06 1.9255e-05 -0.000250106 1 5.15447 5.28547 -0.130994 
98.7965 -4.6334e-06 8.19946e-06 -0.000430131 1 4.28468 4.41566 -0.130984 
77.7809 -1.88995e-06 -2.38919e-06 -0.000122326 1 6.07475 6.20575 -0.130999 
66.9159 -2.41028e-06 2.53033e-06 -7.30687e-05 1 7.0318 7.1628 -0.131001 
56.2664 4.49681e-07 -7.65337e-07 -3.15413e-05 1 7.9457 8.0767 -0.131002 
107.566 7.77263e-07 -3.6172e-07 2.89712e-05 1 9.69979 9.8308 -0.131004 
141.424 -1.49228e-06 9.30695e-07 2.32542e-05 1 8.93291 9.06392 -0.131005 
153.237 8.88848e-07 4.25929e-08 1.71496e-05 1 8.8292 8.96021 -0.131005 
130.27 1.32976e-06 1.09927e-06 3.00843e-05 1 9.09582 9.22684 -0.131005 
119.08 2.3674e-06 2.04631e-07 3.13805e-05 1 9.36086 9.49187 -0.131004 
84.7075 -4.22178e-07 -6.48731e-07 1.74769e-05 1 10.5799 10.7109 -0.131003 
95.8917 -1.20664e-06 -1.18826e-06 2.36922e-05 1 10.0977 10.2287 -0.131004 
74.2405 -1.97756e-07 -9.04403e-07 1.298e-05 1 11.0779 11.209 -0.131003 
63.8866 -8.75269e-08 -2.59658e-07 8.73944e-06 1 11.5961 11.7271 -0.131003 
54.3611 -4.99552e-07 -2.06838e-07 4.2221e-06 1 12.1074 12.2384 -0.131002 
107.779 2.53335e-07 -6.14583e-08 1.24856e-05 1 13.308 13.5005 -0.131007 
141.791 7.14834e-08 2.29845e-07 8.25345e-06 1 12.7071 12.8382 -0.131008 
153.063 2.89938e-07 -5.76346e-07 4.47724e-06 1 12.6291 12.7606 -0.131009 
130.523 -1.46357e-08 5.1641e-09 1.11434e-05 1 12.8646 12.9958 -0.131008 
119.194 -9.3329e-08 2.31232e-07 1.23351e-05 1 13.0789 13.2113 -0.131008 
85.7384 1.27194e-07 -7.8978e-08 1.04521e-05 1 14.0281 14.1763 -0.131007 
96.2433 4.95179e-08 -7.12543e-08 1.18803e-05 1 13.669 13.8339 -0.131007 
75.3024 -1.04881e-08 6.75275e-08 8.23445e-06 1 14.4298 14.5712 -0.131006 
64.9107 2.04967e-08 1.58018e-08 5.55877e-06 1 14.8369 14.9691 -0.131006 
55.1105 5.1891e-08 -1.73992e-08 2.89416e-06 1 15.226 15.4182 -0.131006 
107.825 -6.45741e-08 7.20667e-08 2.90726e-05 1 9.68471 9.81572 -0.131009 
142.704 -7.16325e-07 -7.86369e-07 2.55691e-05 1 8.94274 9.07375 -0.13101 
154.264 3.67812e-06 4.36301e-06 1.464e-05 1 8.85627 8.98728 -0.13101 
130.81 -9.61278e-07 -1.29208e-06 2.99169e-05 1 9.11492 9.24593 -0.13101 
119.252 2.08016e-07 -6.21679e-07 3.11427e-05 1 9.35667 9.48768 -0.131009 
85.2205 -1.15295e-06 -1.00412e-06 1.92777e-05 1 10.5576 10.6885 -0.131008 
96.4526 -7.56228e-07 -8.74225e-07 2.46686e-05 1 10.0953 10.2263 -0.131008 
74.0786 2.04636e-07 4.1498e-07 1.3497e-05 1 11.0735 11.2049 -0.131007 
63.9614 -1.14811e-06 -8.92191e-07 9.10602e-06 1 11.5912 11.7209 -0.131007 
54.3974 -1.54506e-06 -1.16306e-06 4.79837e-06 1 12.112 12.2524 -0.131007 
44.2896 -3.39667e-05 -2.72689e-07 1.99593e-07 1 9.69564 9.82664 -0.131003 
44.5389 -2.58238e-05 -3.65077e-06 -3.72721e-06 1 8.91611 9.04711 -0.131002 
44.56 -1.8847e-05 -3.93161e-06 -6.34125e-06 1 8.85464 8.98564 -0.131002 
44.6785 -3.43979e-05 -4.42687e-06 -2.42946e-06 1 9.05581 9.18682 -0.131002 
43.8327 -3.79261e-05 1.6893e-07 -1.91243e-06 1 9.32924 9.46024 -0.131003 
44.5733 -2.42755e-05 -4.70254e-07 -9.67227e-07 1 10.5614 10.6924 -0.131002 
44.3649 -2.96185e-05 -1.45735e-07 -3.54575e-07 1 10.1081 10.2391 -0.131003 
44.7014 -1.82229e-05 -2.63716e-07 -2.30856e-07 1 11.0439 11.175 -0.131002 
44.8485 -1.22565e-05 -2.61867e-07 -4.92006e-07 1 11.5512 11.6822 -0.131002 
45.0052 -6.24704e-06 1.15805e-07 -3.14096e-08 1 12.0917 12.2227 -0.131002 
44.9922 -5.82809e-07 -6.14227e-06 8.66533e-07 1 13.3982 13.5311 -0.131004 
44.8954 -2.49035e-07 -3.82976e-06 2.73328e-07 1 12.796 12.928 -0.131003 
44.8442 -2.86078e-07 -1.95794e-06 -4.15019e-08 1 12.6995 12.8306 -0.131002 
44.8589 -3.19352e-07 -5.20995e-06 1.38733e-07 1 12.93 13.0713 -0.131003 
44.9308 -1.01222e-06 -5.7108e-06 1.15073e-06 1 13.003 13.277 -0.131004 
45.281 -9.99297e-07 -5.22744e-06 6.35217e-07 1 14.0709 14.202 -0.131005 
45.0991 -7.18136e-07 -5.95632e-06 8.42672e-08 1 13.7182 13.8531 -0.131005 
45.3386 -1.07144e-07 -4.18087e-06 1.15971e-07 1 14.4468 14.5781 -0.131006 
45.44 -1.21406e-07 -2.79743e-06 1.49244e-07 1 14.8708 15.001 -0.131006 
45.507 -6.6651e-07 -1.31917e-06 5.09008e-07 1 15.2761 15.4231 -0.131006 
45.1933 -6.04248e-06 -4.23235e-07 6.00059e-07 1 13.5306 13.6647 -0.131007 
45.4754 -3.06699e-06 -2.71003e-07 3.09254e-07 1 14.7219 14.8608 -0.131006 
45.5378 -1.35604e-06 -3.03428e-07 6.71716e-07 1 15.1825 15.3567 -0.131006 
45.381 -4.44281e-06 -6.23834e-08 2.52163e-07 1 14.243 14.4029 -0.131006 
45.278 -5.42257e-06 -8.18553e-07 3.70926e-07 1 13.7522 14.0198 -0.131006 
45.0784 -6.00813e-06 -5.64536e-07 9.90398e-07 1 12.8787 13.1543 -0.131007 
45.2037 -6.13026e-06 -2.8099e-09 1.49576e-07 1 13.2046 13.3747 -0.131007 
45.1608 -5.18491e-06 -1.9742e-06 1.36604e-06 1 12.8438 12.985 -0.131007 
45.0945 -3.52788e-06 -4.62882e-07 5.33112e-07 1 12.7221 12.8622 -0.131007 
45.0295 -2.44917e-06 -1.50223e-06 1.89891e-06 1 12.5845 12.7943 -0.131007 
45.0018 -4.94752e-07 -3.20407e-05 -5.12794e-07 1 9.85932 9.99033 -0.131006 
45.0626 -1.53651e-07 -1.3573e-05 4.60253e-07 1 11.3721 11.5031 -0.131007 
45.254 -9.82394e-08 -6.40468e-06 2.95781e-08 1 11.9866 12.121 -0.131007 
44.8952 5.69684e-07 -2.09365e-05 1.05796e-07 1 10.8209 10.9519 -0.131007 
45.1027 -2.78779e-07 -2.64791e-05 1.15741e-06 1 10.3286 10.4596 -0.131006 
45.156 -8.68037e-07 -3.60236e-05 -3.12156e-06 1 9.19663 9.32819 -0.131004 
45.1042 -2.2439e-06 -3.63587e-05 -3.58808e-06 1 9.48435 9.61537 -0.131005 
45.5434 -1.77469e-06 -3.50362e-05 -2.65394e-06 1 8.99998 9.131 -0.131003 
45.6547 -1.50277e-07 -2.59843e-05 1.18264e-06 1 8.89602 9.02702 -0.131002 
45.0376 -2.39294e-06 -1.35085e-05 6.07294e-07 1 8.83043 8.96143 -0.131002 
168.464 0.000384931 0.000159529 -7.81152e-05 1 4.05086 4.18186 -0.131001 
466.554 0.0024987 0.00285473 -0.00158213 1.00012 1.21112 1.34235 -0.131224 
165.057 0.000131064 0.000318847 -5.09608e-05 0.999997 4.25145 4.38245 -0.131007 
165.437 1.98967e-06 1.85174e-05 -9.85818e-07 1 8.07562 8.20663 -0.13101 
165.004 5.37128e-06 1.73058e-05 8.52991e-07 1 7.99753 8.12854 -0.13101 
161.7 4.05522e-05 0.00017451 1.64821e-05 0.999999 4.72811 4.85912 -0.131006 
165.695 2.68509e-05 6.47649e-05 6.47324e-07 1 6.49539 6.6264 -0.131009 
162.467 0.000108672 0.000119093 -1.36563e-05 1 4.75616 4.88717 -0.13101 
162.789 0.000127783 0.000400261 4.3797e-05 1.00001 3.63651 3.76751 -0.130999 
163.839 2.11105e-05 2.20157e-05 1.72999e-07 1 7.36618 7.49719 -0.131009 
160.496 0.00016269 8.40082e-05 -9.76261e-06 1 4.47553 4.60654 -0.131006 
162.475 3.67211e-05 2.07534e-05 2.92944e-06 1 6.92212 7.05313 -0.131007 
180.491 0.000771424 0.000523649 -0.000284172 0.999989 2.80183 2.93283 -0.131003 
179.132 0.000368257 0.000646653 -0.000121789 0.999993 2.67846 2.80948 -0.131019 
51.7033 0.00154136 0.00728919 0.00151693 1.00007 1.22731 1.35815 -0.130846 
164.213 4.52331e-06 1.73244e-06 -1.60228e-07 1 10.917 11.048 -0.131009 
164.727 0.000181447 4.82605e-05 1.04784e-05 1 4.77375 4.90475 -0.131 
69.855 0.00552525 0.00121573 0.000268431 1.00007 1.48481 1.61563 -0.130819 
159.12 0.000504424 0.000128969 3.08692e-05 1 3.61328 3.74427 -0.13099 
162.461 2.49809e-05 8.45109e-06 1.60017e-06 1 7.51914 7.65015 -0.131005 
164.163 1.78723e-06 2.31154e-06 -8.9074e-08 1 11.4172 11.5482 -0.131009 
163.31 1.30965e-05 4.16606e-06 -1.19315e-06 1 8.05235 8.18336 -0.131005 
27395.8 0.00166697 0.00141425 -0.000184874 0.000408299 -0.551582 -0.454579 -0.0970036 
164.968 9.11313e-06 1.55625e-05 -3.03445e-07 1 8.17157 8.30258 -0.13101 
165.973 2.07234e-05 0.000132906 -2.03565e-06 1 5.29529 5.4263 -0.131007 
164.723 1.28933e-05 3.06108e-05 1.03372e-06 1 7.5375 7.66851 -0.13101 
165.081 8.97636e-06 3.7647e-05 -3.71039e-07 1 7.14638 7.27739 -0.13101 
167.509 3.43524e-05 0.000124255 -4.39296e-06 1 5.36611 5.49712 -0.131009 
183.301 0.000119615 0.00119409 -0.000153321 0.999945 2.83702 2.968 -0.130975 
164.095 1.00855e-05 5.02044e-06 4.68918e-07 1 9.15951 9.29052 -0.131009 
162.602 3.78659e-05 3.23128e-05 7.33624e-07 1 6.59985 6.73086 -0.131009 
164.458 2.88287e-05 4.38308e-05 3.29537e-07 1 6.68551 6.81652 -0.131009 
159.94 0.00012361 0.000106931 -8.1506e-06 1 4.80463 4.93564 -0.13101 
162.491 2.42614e-05 1.53881e-05 -1.9912e-07 1 7.66397 7.79498 -0.131007 
161.686 6.05458e-05 3.67437e-05 1.05627e-06 1 5.97503 6.10604 -0.131009 
162.926 6.06841e-05 3.77396e-05 -1.71808e-06 1 6.18491 6.31592 -0.131007 
162.982 1.0526e-05 1.07286e-05 3.53198e-08 1 8.66354 8.79455 -0.131007 
151.262 0.000331128 0.000177739 9.40304e-05 1 3.51204 3.64305 -0.131006 
190.506 0.00137538 0.000320048 -0.000175048 0.999995 2.52224 2.65319 -0.130949 
167.627 0.000317428 0.00064427 0.000181696 1 3.16329 3.29429 -0.131001 
118.56 0.00136601 0.00138806 0.000288917 0.999982 2.00714 2.1382 -0.13106 
156.225 0.000207176 0.000259893 3.81333e-05 0.999998 3.86329 3.9943 -0.13101 
-20.0656 0.000735812 0.00879394 0.00114082 0.99538 1.03929 1.16975 -0.130454 
68.1517 0.00217246 0.00386138 0.000536532 0.999999 1.58861 1.71963 -0.131023 
164.223 5.9187e-06 1.00936e-06 -3.50643e-07 1 10.588 10.719 -0.131009 
163.985 9.96864e-06 7.43437e-06 2.65666e-07 1 9.05387 9.18488 -0.131009 
164.001 4.12984e-06 6.17381e-06 -3.30485e-07 1 10.2094 10.3404 -0.131008 
161.178 6.96725e-05 2.7992e-05 3.75037e-07 1 6.04253 6.17353 -0.131005 
202.929 0.0106218 0.000269021 0.00102226 1.00003 1.0694 1.19961 -0.130212 
171.526 0.00134637 0.000856312 -6.61563e-05 1 2.19299 2.32397 -0.130979 
152.676 0.000757067 0.000265869 0.000204606 0.999997 3.06879 3.19979 -0.130992 
163.356 3.5824e-05 8.1391e-06 2.98979e-06 1 7.01986 7.15087 -0.131004 
162.624 9.73655e-06 7.1612e-06 -7.5727e-07 1 8.24273 8.37374 -0.131005 
12521.7 0.00049775 0.00338549 -3.40041e-05 -0.000400083 -0.325119 -0.227451 -0.0976675 
16468.4 0.00293611 0.000597996 -2.45419e-05 -0.00571134 -0.37348 -0.27611 -0.0973704 
1695.93 0.000796748 0.00829814 -0.00023414 0.987276 0.317426 0.444666 -0.127239 
22887.9 0.000730367 0.00215211 4.12794e-05 -0.000326421 -0.542709 -0.446882 -0.0958269 
24088.7 0.00178882 0.000595553 7.09848e-05 0.000599851 -0.608444 -0.512966 -0.0954775 
165.04 2.5281e-05 8.19917e-05 4.03924e-06 1 5.94982 6.08083 -0.131009 
164.754 1.22709e-05 7.8326e-06 -1.05529e-06 1 8.57636 8.70737 -0.13101 
165.199 4.78037e-06 4.4975e-05 4.31862e-08 1 6.88341 7.01442 -0.13101 
164.041 6.73109e-05 0.000139144 7.00658e-06 1 4.94787 5.07888 -0.131009 
164.384 1.24467e-05 5.76383e-06 -2.58799e-07 1 8.83482 8.96583 -0.131009 
162.616 5.63977e-05 6.20353e-05 4.74441e-06 1 5.67728 5.80829 -0.131009 
164.503 2.13944e-05 3.10068e-05 2.134e-06 1 7.05831 7.18932 -0.13101 
163.382 3.06965e-05 3.67691e-05 1.12698e-06 1 6.52134 6.65235 -0.131009 
165.58 3.55999e-05 6.75233e-05 -1.49984e-06 1 6.01061 6.14162 -0.131009 
162.794 1.20555e-05 1.01611e-05 4.27609e-07 1 8.40041 8.53141 -0.131006 
162.925 2.74541e-05 2.33691e-05 8.73351e-07 1 7.02598 7.15699 -0.131008 
161.158 0.000108476 5.8921e-05 -9.25399e-06 1 5.10318 5.23419 -0.131008 
163.446 5.11446e-06 9.35726e-06 -3.74123e-07 1 9.35567 9.48668 -0.131008 
133.994 0.00146405 0.00113063 0.000109573 0.999998 2.37519 2.50621 -0.131024 
158.498 0.00021559 0.000191629 3.92347e-05 1 3.80288 3.93389 -0.131013 
681.979 -1.3949e-05 0.0114698 -2.33664e-05 0.998688 0.619844 0.748881 -0.129037 
176.476 0.000652414 0.00235009 -0.000378175 1.00013 1.98169 2.11263 -0.130939 
163.753 1.47728e-05 1.13181e-05 1.80025e-08 1 8.16556 8.29657 -0.131009 
164.021 7.81682e-06 6.41764e-06 -2.63293e-07 1 9.47093 9.60194 -0.131009 
164.127 6.54394e-06 3.33358e-06 2.58568e-07 1 10.0212 10.1522 -0.131009 
163.476 1.17864e-05 1.09629e-05 -7.32916e-08 1 8.57968 8.71069 -0.131008 
164.012 1.66658e-06 4.35199e-06 1.45627e-07 1 10.8305 10.9615 -0.131008 
162.73 5.81826e-05 2.68319e-05 -7.60855e-06 1 6.33229 6.4633 -0.131006 
162.374 4.60216e-05 1.35067e-05 -1.95345e-07 1 6.7351 6.86611 -0.131004 
161.651 8.63962e-05 2.07538e-05 5.0636e-07 1 5.84914 5.98014 -0.131004 
164.478 0.000127632 4.8996e-05 2.92214e-06 1 5.09549 5.22649 -0.131004 
750.715 0.0111972 0.000224432 -0.000776454 0.998276 0.71504 0.844401 -0.12936 
6872.17 0.000135766 0.00468169 7.07517e-05 0.0823396 -0.153998 -0.052461 -0.101537 
16452.7 0.000759988 0.00275482 1.83573e-05 -0.000248795 -0.374192 -0.276317 -0.0978748 
12581.4 0.00331015 0.000216014 5.8219e-05 -0.0039967 -0.359451 -0.262736 -0.0967142 
377.199 0.00104208 0.00678314 3.92702e-05 1.00009 0.875524 1.00671 -0.13119 
509.815 0.000113196 0.0100632 -0.00113576 0.999522 0.81741 0.948009 -0.130599 
2284.14 -9.59159e-05 0.0077378 -0.000102731 0.973221 0.249362 0.37345 -0.124088 
37245.4 0.000847015 0.00101997 1.16761e-05 -3.53286e-05 -0.756677 -0.661622 -0.0950554 
164.11 1.3435e-05 1.27811e-05 3.83581e-08 1 8.2063 8.33731 -0.131009 
164.677 4.82982e-05 7.12947e-05 -2.58031e-06 1 5.73373 5.86473 -0.13101 
162.567 1.20107e-05 9.45751e-06 -3.00939e-07 1 8.28027 8.41127 -0.131006 
170.829 0.000471372 0.000381151 -1.17732e-05 0.999999 3.06564 3.19666 -0.131013 
152.463 0.000208286 0.000167071 2.92e-05 1 3.88265 4.01366 -0.131011 
934.105 4.7467e-05 0.0079538 -0.000378196 0.991369 0.483733 0.612286 -0.128553 
163.485 2.16127e-05 2.04774e-05 -5.02436e-07 1 7.30261 7.43361 -0.131009 
164.08 4.91355e-06 3.95633e-06 2.0884e-07 1 10.2438 10.3748 -0.131009 
164.301 7.81289e-06 2.78094e-06 -7.53643e-07 1 9.9783 10.1093 -0.131009 
163.285 1.16796e-05 1.15552e-05 2.11453e-07 1 8.58055 8.71155 -0.131008 
163.584 6.80751e-06 8.60597e-06 5.35305e-07 1 9.32026 9.45126 -0.131008 
163.817 1.13881e-05 1.04131e-05 7.85663e-08 1 8.71293 8.84394 -0.131009 
163.405 1.79517e-05 1.48351e-05 1.71826e-08 1 7.85906 7.99007 -0.131008 
161.854 4.03576e-05 2.06271e-05 4.63539e-06 1 6.84792 6.97893 -0.131006 
162.082 2.4786e-05 1.18032e-05 2.83494e-06 1 7.52216 7.65316 -0.131005 
164.229 6.97552e-05 2.03672e-05 -5.83251e-08 1 5.91086 6.04186 -0.131003 
161.506 4.35155e-05 1.82527e-05 2.11295e-06 1 6.74696 6.87797 -0.131005 
161.624 9.30909e-05 5.18e-05 9.1618e-06 1 5.5083 5.6393 -0.131006 
976.543 0.0102127 0.000332487 -7.26389e-05 1.00187 0.487643 0.615444 -0.127801 
6897.94 8.02306e-05 0.00562365 1.19151e-05 0.337995 -0.0404557 0.0673968 -0.107852 
10786 0.000293784 0.00337647 1.12667e-06 0.00168178 -0.317042 -0.220125 -0.0969171 
9116.81 0.00593761 0.000174049 -9.98598e-05 0.442141 -0.0164112 0.0934172 -0.109828 
11737 0.0045162 0.000246138 -4.84548e-05 0.0723165 -0.17037 -0.0688956 -0.101474 
599.279 0.00165685 0.00836871 0.000384505 1.00285 0.588282 0.71897 -0.130689 