<VTKFile type="UnstructuredGrid">
<UnstructuredGrid>
<Piece NumberOfPoints="8379" NumberOfCells="44392">
<Points>
<DataArray type="Float64" Name="coordinates" NumberOfComponents="3" format="ascii">
4.49 6.275 1.43 
4.745 5.259 0.916493 
4.49 5.1275 1.175 
6.06196 9.06228 2.98171 
5.6375 5.6375 1.175 
4.49 4.745 0.665 
5.05027 9.07637 2.46823 
10 7.23243 1.20901 
9.72304 7.16719 1.29683 
9.86206 7.16331 1.29278 
10 7.12485 1.15524 
9.92547 7.08703 1.24263 
9.92464 7.13481 1.22671 
4.48413 5.29135 0 
9.91222 7.09579 1.10278 
9.93506 7.15936 1.09477 
9.9225 7.1034 1.04014 
9.93194 7.10661 1.07551 
9.9225 7.21653 1.07446 
5.47929 8.64117 3.3444 
4.3625 4.8725 1.3025 
4.6175 5 1.0475 
4.745 5.6375 1.0475 
10 7.16359 1.03602 
9.9225 7.2309 1.04014 
9.71939 6.91246 1.30059 
9.85639 6.91118 1.29749 
9.845 7.04 1.3025 
10 6.84479 1.21285 
10 6.97523 1.19703 
10 7.1917 0.918047 
10 7.02782 1.07287 
4.8725 5.3825 0.92 
9.4625 6.9125 1.3025 
9.2075 7.1675 1.3025 
9.4625 7.1675 1.3025 
4.49 6.02 1.43 
4.1075 5 1.175 
9.59091 7.04003 1.41809 
9.80866 6.6394 1.43591 
10 6.88807 1.35822 
9.845 6.9125 1.43 
9.8332 7.03242 1.42475 
3.47 7.04 1.94 
4.6175 5.255 1.175 
9.845 6.785 1.43 
4.6175 4.8725 1.0475 
9.59 6.785 1.685 
5.51367 9.07001 2.96211 
5.8925 5.8925 1.3025 
5.51 5.51 1.175 
5 5.51 1.175 
5.255 5.00201 0.91812 
5.1275 5.1275 1.0475 
2.95651 7.04393 3.97369 
4.8725 5.6375 1.0475 
5.765 5.765 1.43 
5.6375 5.6375 1.3025 
5.6375 5.3825 1.3025 
4.745 6.275 1.685 
4.6175 5.1275 1.3025 
4.25089 4.80668 0.465619 
5.765 5.765 1.175 
5.8925 5.8925 1.175 
3.97855 8.07065 3.96725 
5.8925 5.6375 1.3025 
3.725 5.51 1.43 
5.51 5.3825 1.175 
5.6375 5.51 1.175 
5.51042 8.60018 2.41934 
5.765 5.6375 1.175 
9.08 6.02 5 
7.04 8.06 5 
9.57553 5.54608 3.67755 
4.99922 7.55161 1.92129 
5.51 5.255 1.175 
5.6375 5.3825 1.175 
6.53 6.02 1.43 
6.1475 6.02 1.175 
5.51 5.3825 1.0475 
4.235 8.315 1.685 
5.765 5.51 1.175 
5.8925 5.6375 1.175 
5.765 5.255 1.175 
5.6375 5.255 1.175 
5.6375 5.51 1.0475 
5.765 5.6375 1.0475 
5.8925 5.3825 1.175 
5.765 5.3825 1.175 
6.1475 5.6375 1.3025 
6.1475 5.8925 1.3025 
6.275 5.765 1.43 
6.02 5.765 1.175 
5.8925 5.765 1.175 
6.1475 5.8925 1.175 
6.02 5.8925 1.175 
6.4025 5.8925 1.3025 
3.725 6.275 1.685 
4.235 4.745 1.43 
4.6175 5.1275 1.175 
4.235 5.255 1.43 
4.99968 8.06175 1.92998 
8.4425 6.9125 1.3025 
8.6975 6.9125 1.3025 
8.9525 6.9125 1.3025 
9.20752 6.9125 1.29911 
4.49119 4.53823 0.417218 
9.08 7.04 1.175 
9.2075 7.1675 1.175 
9.33528 6.78499 1.40494 
9.2075 6.6575 1.3025 
9.59321 6.7849 1.41548 
9.4625 6.6572 1.29572 
9.845 6.785 1.3025 
10 6.75675 1.1329 
10 6.71477 1.27569 
9.72401 6.65564 1.29474 
9.86188 6.65105 1.29394 
10 6.6351 1.17338 
9.2075 7.04 1.175 
9.335 7.1675 1.175 
9.335 7.04 1.175 
9.4625 7.1675 1.175 
9.4625 7.04 1.175 
9.59 7.1675 1.175 
9.59 7.04 1.175 
9.7175 7.1675 1.175 
9.86236 7.15449 1.15926 
9.7175 7.04 1.175 
9.84982 7.0358 1.17265 
10 6.88913 1.10041 
9.9225 6.83788 1.06982 
9.92532 6.97351 1.06833 
9.92493 6.9585 1.11783 
10 7.07311 0.972076 
9.90986 7.11081 1.00319 
9.86126 7.03292 1.04562 
9.9225 6.98858 1.01239 
4.745 5.3825 0.92 
9.72184 7.1646 1.05009 
9.85959 7.14159 1.05261 
9.59064 7.16879 1.04797 
4.235 6.275 1.685 
4.23614 4.7374 0.68082 
4.6175 5.3825 1.0475 
4.49 5.00424 0.916024 
9.71868 7.17849 0.937311 
9.86447 7.14539 0.941766 
9.79566 6.49851 1.4393 
9.2075 6.9125 1.175 
9.335 6.9125 1.175 
9.335 6.785 1.175 
9.4625 6.9125 1.175 
9.84647 6.78272 1.1745 
9.91203 6.71245 1.09499 
9.92873 6.72331 1.05688 
9.4625 6.785 1.175 
9.59 6.9125 1.175 
9.71757 6.78266 1.17596 
9.59022 6.78039 1.17847 
9.71849 6.89671 1.15258 
9.85056 6.89891 1.16691 
9.9225 6.84988 1.01665 
10 7.20889 0.787277 
9.88998 7.14864 0.803363 
10 6.54883 1.10821 
9.9111 6.58153 1.12572 
9.93124 6.60625 1.09454 
10 7.03762 0.870367 
10 6.94103 0.976471 
9.92411 6.85826 0.964638 
10 6.66165 1.06465 
9.93422 6.70696 1.01655 
10 6.78878 1.0118 
9.84597 6.78343 1.04744 
9.93226 6.65819 0.992927 
9.92009 6.72337 0.967702 
9.4625 6.4025 1.3025 
9.83444 6.5186 1.30129 
9.72678 6.40134 1.27865 
10 6.49435 1.2906 
10 6.50019 1.03245 
9.90958 6.3352 1.12533 
3.725 6.02 1.43 
3.94812 8.1271 2.89695 
4.6175 4.8725 0.92 
4.745 5.255 1.175 
9.33737 7.03992 1.39681 
9.59 7.04 1.685 
4.23498 5.24065 0.686998 
4.48815 8.06632 1.90924 
4.99967 5.75896 0.674937 
4.745 5.3825 1.175 
6.9125 6.1475 1.3025 
4.36251 4.8725 0.795669 
4.8725 5 1.0475 
4.8725 5.51 1.0475 
9.73361 6.15471 1.52943 
9.58385 6.53156 1.40529 
8.82511 6.785 1.67841 
9.08012 6.785 1.4287 
9.33662 6.52979 1.39918 
9.55647 6.53312 1.64754 
9.35834 6.78362 1.65622 
9.83901 6.14512 1.4385 
10 6.25325 1.39689 
9.845 6.275 1.43 
9.62721 6.28483 1.6461 
10 6.02187 1.43482 
9.83684 6.275 1.68739 
9.81656 6.53469 1.67092 
10 6.42256 1.56997 
10 6.66934 1.51995 
9.53961 7.03638 1.96613 
4.49 9.08 2.96 
9.53233 6.47819 1.92673 
9.34718 6.78211 2.15342 
9.57991 6.77816 1.95157 
4.49 5.3825 0.92 
4.46872 8.64506 3.34218 
5.3825 5.255 1.0475 
5.1275 5.255 1.175 
6.02 5.765 1.43 
5.1275 5 1.0475 
4.6175 5.255 1.0475 
4.745 4.8725 0.92 
5.765 5.51 1.43 
5.8925 5.1275 1.3025 
5.765 5.255 1.43 
5.8925 5.3825 1.3025 
6.275 6.02 1.43 
5.765 7.805 1.685 
6.275 5.765 1.685 
6.02 5.51 1.43 
7.805 6.65864 0.918875 
4.235 5 1.43 
4.49 5.51 1.43 
3.98 5.255 1.43 
3.725 5.765 1.685 
4.1075 5.51 1.175 
5.3825 5.1275 0.92 
5.3825 5.1275 1.0475 
8.4425 7.04 1.175 
7.805 6.785 1.0475 
5.51 5.1275 1.0475 
5.765 8.315 1.685 
8.57 7.04 1.175 
5.8925 5.51 1.175 
5.8925 5.765 1.0475 
6.02 5.6375 1.175 
6.02 5.51 1.175 
6.1475 5.6375 1.175 
6.1475 5.3825 1.3025 
6.275 5.51 1.43 
6.4025 5.6375 1.3025 
6.53 5.765 1.43 
6.6575 5.8925 1.3025 
5.51 5.255 1.0475 
5.6375 5.3825 0.92 
5.6375 5.3825 1.0475 
5.765 5.51 1.0475 
4.89543 9.1483 3.68832 
5.8925 5.6375 0.92 
5.8925 5.6375 1.0475 
5.50935 8.06216 1.92335 
5.1275 5.51 1.0475 
4.49 7.04 1.94 
5.3825 5.255 0.92 
5.51 5.3825 0.92 
6.02183 5.77864 0.406986 
7.55 6.6575 1.0475 
8.9525 7.04 1.0475 
9.2075 7.0423 0.917708 
8.9525 6.9125 0.7925 
6.275 6.02 1.175 
6.1475 5.1275 1.3025 
6.275 5.255 1.43 
6.4025 5.3825 1.3025 
5.255 5.6375 1.0475 
5.51 7.805 1.43 
5.765 5 1.175 
5.8925 5 1.175 
5.6375 5.255 1.0475 
5.765 5.3825 1.0475 
5.8925 5.1275 1.175 
5.765 5.1275 1.175 
4.49 7.805 1.43 
5.51 5.255 0.92 
5.6375 5.1275 0.92 
5.765 5.1275 1.0475 
5.6375 5.1275 1.0475 
6.02 5.1275 1.175 
6.02 5.255 1.175 
5.8925 5.255 1.175 
5.8925 5.51 1.0475 
6.02 5.6375 1.0475 
6.1475 5.3825 1.175 
6.02 5.3825 1.175 
5.8925 5.255 1.0475 
5.765 5.255 1.0475 
5.8925 5.3825 0.92 
6.02 5.3825 1.0475 
5.8925 5.3825 1.0475 
8.825 6.9125 0.92 
7.26309 10 5.30698 
8.9525 7.04214 0.917985 
5.51 8.06 1.43 
6.02 5 1.175 
6.1475 5.1275 1.175 
5.255 7.55 1.43 
5 6.02 3.98 
9.08 7.1675 1.0475 
6.4025 5.1275 1.3025 
4.6175 4.8725 1.3025 
6.4025 4.8725 1.3025 
6.275 5.51 1.175 
6.1475 5.51 1.175 
6.4025 5.6375 1.175 
6.275 5.6375 1.175 
6.275 5.765 1.175 
6.1475 5.765 1.175 
4.24959 4.51768 0.405719 
6.4025 5.8925 1.175 
6.275 5.8925 1.175 
6.4025 5.765 1.175 
6.1475 5.765 1.0475 
6.02 5.765 1.0475 
5.1275 5.51 0.92 
6.1475 5.8925 0.92 
6.275 5.8925 1.0475 
6.1475 5.8925 1.0475 
6.53 5.8925 1.175 
6.53 6.02 1.175 
6.4025 6.02 1.175 
6.6575 6.1475 1.175 
6.6575 5.3825 1.3025 
6.53 5.765 1.175 
6.6575 5.8925 1.175 
6.6575 5.6375 1.3025 
6.785 5.765 1.43 
6.9125 5.6375 1.3025 
6.9125 5.8925 1.3025 
7.1675 5.6375 1.3025 
7.295 5.765 1.43 
7.1675 5.8925 1.3025 
7.4225 5.8925 1.3025 
7.1675 6.1475 1.3025 
7.295 6.275 1.43 
7.4225 6.1475 1.3025 
7.4225 6.4025 1.3025 
3.47 5.51 2.45 
5.1275 5.1275 1.175 
7.6775 6.6575 1.3025 
7.6775 6.4025 1.3025 
7.9325 6.6575 1.3025 
6.785 6.02 1.175 
6.6575 6.02 1.175 
7.04 6.02 1.175 
6.9125 6.02 1.175 
6.9125 6.1475 1.175 
6.785 6.1475 1.175 
7.1675 6.1475 1.175 
7.04 6.1475 1.175 
7.6775 6.1475 1.3025 
7.805 6.275 1.43 
7.9325 6.4025 1.3025 
8.315 6.785 1.43 
8.1875 6.6575 1.3025 
8.57 6.785 1.43 
8.4425 6.6575 1.3025 
8.825 6.785 1.43 
8.6975 6.6575 1.3025 
8.9525 6.6575 1.3025 
7.295 6.275 1.175 
7.1675 6.275 1.175 
7.4225 6.4025 1.175 
7.295 6.4025 1.175 
4.6175 5 1.175 
3.47 5 1.94 
7.6775 6.6575 1.175 
4.745 5.765 0.665 
5 4.8725 1.0475 
5 5.3825 1.0475 
3.98 5.765 1.43 
2.96 6.02 1.94 
4.235 6.02 1.43 
4.49 4.8725 0.92 
4.6175 5.51 1.0475 
4.745 5.255 1.0475 
5.3825 5 0.92 
4.23847 5.01783 0.408761 
5 5.51 0.92 
7.9325 6.785 1.175 
3.98 6.275 1.43 
8.06 6.785 1.175 
4.3625 5.255 0.92 
8.1875 6.785 1.175 
8.315 6.9125 1.175 
8.315 6.785 1.175 
8.4425 6.9125 1.175 
8.4425 6.785 1.175 
8.57 6.9125 1.175 
8.57 6.785 1.175 
8.6975 6.9125 1.175 
9.08 6.785 1.175 
9.2075 6.785 1.175 
8.6975 6.785 1.175 
8.825 6.9125 1.175 
8.9525 6.785 1.175 
8.825 6.785 1.175 
8.9525 6.9125 1.175 
9.08 6.9125 1.175 
4.235 5.1275 1.175 
8.9525 6.9125 0.92 
9.08 6.9125 1.0475 
8.9525 6.9125 1.0475 
9.08 7.04 1.0475 
9.2075 7.04 1.0475 
9.08106 6.52997 1.42402 
9.2075 6.4025 1.3025 
9.2075 6.6575 1.175 
8.1875 6.4025 1.3025 
8.57 6.53 1.43 
8.4425 6.4025 1.3025 
8.82619 6.52997 1.41169 
8.6975 6.4025 1.3025 
8.9525 6.4025 1.3025 
9.08 6.53 1.175 
8.9525 6.6575 1.175 
9.08 6.6575 1.175 
7.9325 6.1475 1.3025 
8.315 6.275 1.43 
8.1875 6.1475 1.3025 
8.4425 6.1475 1.3025 
8.825 6.275 1.43 
8.6975 6.1475 1.3025 
8.9525 6.1475 1.3025 
9.2075 6.53 1.175 
9.335 6.6575 1.175 
9.335 6.53 1.175 
9.4625 6.6575 1.175 
9.46243 6.5203 1.18361 
9.59 6.6575 1.175 
9.59048 6.51165 1.18993 
9.7175 6.6575 1.175 
9.84763 6.65578 1.17302 
9.71841 6.50961 1.18006 
9.85408 6.5146 1.17239 
10 6.42394 1.1032 
9.92089 6.34512 1.09126 
9.9225 6.47486 1.07334 
10 6.58021 1.01682 
9.91676 6.6185 0.965296 
9.93636 6.52233 0.993458 
9.2075 6.9125 0.92 
9.335 6.9125 1.0475 
9.2075 6.9125 1.0475 
9.335 7.04 1.0475 
9.4625 7.04 1.0475 
9.4625 6.9125 0.92 
9.59016 6.91299 1.04699 
9.4625 6.9125 1.0475 
9.59 7.04 1.0475 
9.72152 7.03758 1.04718 
9.72037 6.91163 1.04696 
9.8488 6.90907 1.04659 
9.84488 7.03861 0.920967 
9.71808 6.91839 0.928935 
9.85393 6.90985 0.926591 
[...]
<PointData>
<DataArray type="Float64" Name="proteus_solution" NumberOfComponents="8" format="ascii">
406.843 0.000163816 0.00292362 -0.0148426 0.940484 0.424052 0.430042 -0.00598982 
2250.59 -7.02572e-05 0.000437188 0.0018898 0.302711 -0.0759626 -0.0835264 0.00756377 
1075.21 -0.000374267 0.00159404 -0.000689481 0.877259 0.172332 0.175017 -0.00268433 
121.137 -0.00107291 -0.00467842 0.00422084 1 1.97438 1.9817 -0.00731222 
1088.54 -0.000487186 0.000572319 0.00166318 0.918823 0.172484 0.175002 -0.00251797 
3899.43 -3.92251e-05 -9.37593e-05 -0.000183534 0.0710805 -0.321707 -0.33501 0.0133036 
127.566 -0.000390202 0.000322759 0.00575273 1 1.46074 1.46822 -0.00747336 
977.286 0.00124852 0.000167359 -0.00252358 0.961044 0.203053 0.209019 -0.00596543 
732.003 0.00223851 0.000510508 -0.00177452 0.98167 0.289659 0.296847 -0.0071877 
739.795 0.00316737 0.000598806 -0.00271017 0.997814 0.285341 0.2928 -0.00745949 
1156.17 -0.000870152 -0.000526634 -0.000751488 0.924454 0.150803 0.155249 -0.00444643 
881.832 -0.00157471 -0.000770673 -0.00143294 0.988944 0.236088 0.242646 -0.00655792 
929.641 -0.0013423 -0.000609003 -0.00218138 0.991086 0.220533 0.226729 -0.00619562 
9860.54 -6.00331e-05 -7.89639e-05 -0.000799829 0 -0.984482 -0.999998 0.0155168 
1361.95 0.000615886 0.000262601 -2.9225e-05 0.851288 0.100772 0.102784 -0.00201182 
1393.76 -0.000279278 9.53283e-05 -0.000576636 0.855385 0.0930923 0.0947745 -0.00168222 
1630.44 -0.00060653 -2.67512e-05 0.000474654 0.677617 0.0412126 0.0401383 0.0010743 
1474.66 -0.00106231 -0.000588198 -0.000567233 0.82107 0.0747446 0.0755124 -0.000767829 
1476.67 0.00057842 -0.000308007 -0.000604602 0.760305 0.0737726 0.0744573 -0.000684734 
116.549 0.000716581 -0.00536575 0.000420211 1 2.33733 2.34439 -0.00705954 
727.561 -0.00269862 -0.00259462 0.000932346 0.967538 0.297927 0.302516 -0.00458891 
1588.82 2.79275e-05 -0.000193851 0.000204629 0.64661 0.0495544 0.0474983 0.00205605 
1588.32 -8.94425e-07 -0.000203615 -0.000314967 0.646663 0.0495593 0.0475031 0.00205626 
1645.91 -0.000501999 -0.000502541 5.43408e-05 0.652655 0.0373089 0.036024 0.00128482 
1628.06 -0.000206224 -1.03766e-05 0.000990411 0.650248 0.041211 0.0401332 0.00107774 
721.896 0.00113459 -0.000149181 -0.000211327 0.984757 0.293365 0.300599 -0.00723345 
727.507 0.00242751 0.000585812 -0.000763365 0.999044 0.290008 0.297505 -0.00749688 
718.158 0.00171616 -0.000275784 -0.000413318 0.992617 0.294976 0.302514 -0.0075382 
964.193 -4.99731e-05 -0.000410826 -0.00204499 0.974047 0.206847 0.21287 -0.0060221 
1010.5 0.00105058 0.00017035 -0.00182058 0.950153 0.191288 0.197047 -0.00575904 
2242.89 0.000370604 -0.000267872 -7.86664e-05 0.273099 -0.0747824 -0.0819536 0.00717123 
1478.88 0.000408108 0.000160404 -0.000598065 0.764612 0.0720502 0.0728854 -0.000835223 
2233.97 -9.96536e-05 -0.000750603 -0.000786014 0.288199 -0.0726534 -0.0800017 0.00734823 
721.221 -0.00113467 -0.000605984 0.00205385 0.973833 0.295837 0.302506 -0.00666824 
718.76 0.00257301 0.0019357 0.000555497 0.973634 0.2961 0.302509 -0.00640942 
716.916 -0.00203171 0.000496768 0.000366374 0.972123 0.295796 0.302505 -0.00670831 
437.037 0.000201687 -4.45243e-05 -0.0277446 0.920654 0.424207 0.43007 -0.00586287 
1074.57 0.00188835 9.73029e-05 -0.00159987 0.877228 0.172311 0.175014 -0.00270275 
464.282 -0.00221752 0.000684433 -0.0057699 0.98165 0.40983 0.418106 -0.00827512 
440.47 -0.00130247 0.00107293 -0.00463259 0.996169 0.427358 0.435932 -0.00857447 
573.969 0.00490324 -0.00257506 -0.0071424 0.977951 0.349889 0.358254 -0.00836493 
445.027 -0.00115327 -0.00470186 -0.0129674 0.973988 0.421418 0.43003 -0.008612 
458.325 -0.00550796 -0.000494266 -0.00962102 0.988014 0.41616 0.424774 -0.00861415 
143.545 -5.85193e-05 -0.000609241 -0.00170039 0.964065 0.933504 0.939989 -0.00648412 
1072.95 0.000146709 -0.000213501 -0.00355685 0.877271 0.17234 0.175009 -0.00266851 
433.952 0.00344957 -0.00372305 -0.0101131 0.963561 0.421407 0.430065 -0.00865896 
1591.25 -0.000109786 -0.000111337 0.000209536 0.646731 0.0495751 0.0474979 0.00207714 
207.881 0.00241263 -0.00105865 0.00443239 0.999494 0.676438 0.685038 -0.00859978 
121.604 0.000605186 -0.00552633 0.0075719 1 1.95482 1.9621 -0.00728423 
727.465 -0.00270442 -0.00249194 0.000837269 0.967467 0.297807 0.302513 -0.00470626 
1086.2 8.52487e-05 -0.000488523 -0.00795456 0.874826 0.172403 0.175038 -0.00263451 
1086.58 0.000118811 -0.000531145 -0.00859109 0.878892 0.172463 0.175037 -0.00257412 
2241.04 -9.50897e-05 0.000382637 0.00219135 0.309709 -0.0743934 -0.081902 0.00750864 
1590.74 -0.000121303 -0.000354005 0.000587026 0.646614 0.0495348 0.0474941 0.00204071 
109.051 -0.000357584 -0.000762221 -0.000486519 1 2.96681 2.97369 -0.0068726 
1591.07 0.000145394 -0.000199623 0.000388413 0.646702 0.0495654 0.0474959 0.00206952 
456.9 0.000766577 0.000787454 0.00783721 0.987996 0.424208 0.43001 -0.00580199 
727.122 0.00293691 0.00297154 0.00139286 0.967503 0.297869 0.302518 -0.00464854 
719.501 0.00255978 -0.00254386 -0.000276795 0.967531 0.297916 0.302522 -0.00460604 
215.595 -0.00298596 0.00304896 0.00143358 0.986595 0.67894 0.685048 -0.00610776 
727.608 0.002613 0.00272315 0.00103491 0.967538 0.297928 0.302515 -0.00458754 
5528.46 5.47482e-05 -3.66951e-05 -0.000162822 0.0254209 -0.519624 -0.534381 0.0147571 
1085.3 0.000303436 -0.000640455 -0.00765147 0.874822 0.1724 0.175016 -0.0026155 
1088.5 0.0010669 0.00182189 0.00162928 0.918756 0.172437 0.175 -0.00256318 
109.156 5.47659e-05 -0.000759566 -0.00244178 1 2.96028 2.96724 -0.00696586 
719.279 -0.00280708 0.00256435 0.00131459 0.967495 0.297856 0.302523 -0.00466744 
406.88 -0.00237201 -0.000642321 -0.0148967 0.940496 0.424076 0.430043 -0.00596769 
1075.2 -0.000180138 -0.00220218 -0.00256282 0.877225 0.172309 0.175017 -0.00270778 
1074.93 0.00175408 0.000427499 -0.00218819 0.877201 0.172294 0.175018 -0.00272404 
128.533 -5.91823e-05 0.00657698 0.00258866 0.997786 1.41213 1.41932 -0.00718588 
1072.86 0.000744322 0.000410113 -0.0031246 0.877214 0.172302 0.175011 -0.00270808 
97.1224 -0.000692535 -0.000206299 0.000429802 1 3.99294 4 -0.00706076 
97.0404 -0.000391924 -0.00039404 -0.000743961 1 3.99295 3.99999 -0.00704406 
112.972 -0.000353063 0.000227119 0.00248013 1 2.67034 2.67752 -0.00718266 
144.988 -3.29692e-05 0.000669432 -0.0102981 0.95422 0.914742 0.921281 -0.00653851 
1080.43 -6.36986e-05 -0.000474635 -0.00601615 0.874889 0.172445 0.175024 -0.00257894 
1087.71 0.000370519 0.000820838 0.0012969 0.918891 0.172533 0.175007 -0.00247416 
436.922 0.000194007 -4.48434e-05 -0.0277633 0.92582 0.423966 0.43007 -0.00610434 
1074.49 0.0018983 8.90738e-05 -0.00161084 0.875463 0.172164 0.175016 -0.00285176 
1588.4 -1.05763e-05 -0.000228831 0.000208844 0.646621 0.0495364 0.0474984 0.00203803 
215.698 0.00236187 0.00449182 0.00436604 0.990546 0.677881 0.685041 -0.00716014 
1080.6 3.17422e-05 -0.000104691 -0.00607939 0.874852 0.17242 0.175024 -0.00260396 
1087.47 6.84675e-05 0.000771612 0.00124397 0.918827 0.172488 0.175006 -0.0025186 
1085.45 0.000398735 -0.000905919 -0.00768951 0.874907 0.172456 0.175003 -0.0025468 
1072.75 0.000148106 -0.00022144 -0.003597 0.877266 0.172336 0.175009 -0.00267246 
1588.58 6.00118e-05 -0.000147306 0.000100505 0.646671 0.049554 0.0474994 0.00205455 
1588.24 6.28905e-06 -0.000211968 -0.000368521 0.646684 0.0495585 0.0475036 0.00205491 
1088.62 0.00114987 0.00163433 0.00164625 0.918858 0.172509 0.175003 -0.00249346 
1073.07 0.000209775 -0.000626245 -0.00369714 0.877262 0.172334 0.175011 -0.00267713 
727.489 0.00268707 0.00267604 0.00107646 0.967468 0.297809 0.302517 -0.00470762 
719.257 0.00250748 -0.00239648 0.00151316 0.967439 0.29776 0.302527 -0.00476667 
457.136 1.6576e-05 -9.49287e-05 0.00678338 0.987965 0.424085 0.430012 -0.00592626 
1080.3 -8.82192e-05 -0.000408 -0.00589562 0.874757 0.172358 0.175028 -0.00267065 
1072.53 -0.000432158 -0.000673831 -0.00366906 0.877162 0.172268 0.175011 -0.0027437 
1087.34 0.000187881 0.00103061 0.00163028 0.918714 0.172408 0.175009 -0.00260175 
1074.8 9.35942e-05 -0.00227352 -0.00186187 0.877083 0.172216 0.175015 -0.00279954 
727.439 -0.00270444 -0.00258271 0.000922902 0.967398 0.297691 0.302517 -0.00482678 
215.568 -0.00296401 0.00308717 0.00143689 0.986569 0.678784 0.685048 -0.00626383 
457.216 -1.00157e-05 -0.0001123 0.0067774 0.988012 0.424272 0.430012 -0.00573917 
1088.84 -0.000377221 0.000347565 0.00154069 0.918917 0.172551 0.175002 -0.00245051 
456.957 -0.000973651 -0.000869233 0.00784166 0.988003 0.424236 0.430012 -0.00577568 
146.393 0.000101545 0.0031052 -0.0157051 0.957296 0.92314 0.92998 -0.00684029 
725.792 -0.00268351 -0.00251844 0.00044906 0.966878 0.296815 0.302513 -0.00569713 
715.092 0.00281673 -0.0027415 0.000919294 0.967307 0.296622 0.302516 -0.0058946 
722.969 -0.00239082 -0.00235747 0.000536937 0.96798 0.296433 0.302504 -0.00607053 
719.149 0.00274491 -0.00132942 0.00205296 0.9695 0.292775 0.299122 -0.00634724 
5936.89 0.000113317 0.000101818 -0.00022218 0.0126069 -0.567748 -0.582784 0.015036 
1083.26 8.24054e-05 -0.000546862 -0.00848853 0.876924 0.171099 0.175017 -0.00391791 
1084.8 -0.000417152 0.000385973 0.00137782 0.916877 0.171116 0.175001 -0.00388472 
499.169 -0.00144783 -0.000169219 0.00239971 0.982501 0.397277 0.404945 -0.00766784 
722.947 0.00263388 0.00195117 4.08796e-05 0.971684 0.296174 0.302513 -0.00633915 
476.111 -0.00015748 -0.000773397 -0.0019899 0.986348 0.407247 0.415496 -0.00824924 
734.431 -0.00113745 0.000633039 0.000264833 0.972191 0.289122 0.295721 -0.00659935 
714.789 0.00141748 -0.000152127 -0.00140441 0.994607 0.295043 0.30254 -0.0074965 
1239.89 -0.000415363 -0.000481837 -0.00127033 0.876368 0.129508 0.132919 -0.00341106 
775.56 0.00373306 0.000932885 -0.0036683 0.978055 0.268322 0.275738 -0.00741652 
733.505 0.000801895 -0.000145964 -8.15272e-05 0.984621 0.2876 0.294746 -0.007146 
743.092 0.00178561 0.000563668 -0.00204041 0.991996 0.286617 0.293951 -0.00733345 
1088.36 0.00215101 0.000319711 -0.000937304 0.916695 0.16847 0.173404 -0.0049339 
1071.67 0.00246741 0.000462253 -0.00110249 0.882655 0.170884 0.175005 -0.00412121 
1073.2 0.000418881 -0.000316289 -0.00269773 0.888907 0.17084 0.175005 -0.00416411 
1074.59 -0.000153038 -0.000451989 -0.00438367 0.889344 0.170912 0.175008 -0.00409576 
1084.41 0.000286562 0.000782399 0.00128171 0.916995 0.170946 0.174999 -0.00405358 
1072.84 -0.00127452 0.000217189 -0.00249038 0.884173 0.170755 0.175006 -0.00425073 
1068.67 0.000409166 0.000103611 -0.00232041 0.876093 0.1706 0.175005 -0.00440542 
1083.14 -0.00033352 -0.00028838 -0.00568927 0.878211 0.170788 0.175013 -0.004225 
1089.03 -0.00101715 0.000203486 -0.000204267 0.914788 0.170667 0.17501 -0.00434243 
1141.39 -8.29199e-05 0.000180047 -0.00155279 0.906092 0.155071 0.159276 -0.0042047 
1077.52 0.000926489 -3.99897e-05 -0.00126873 0.888551 0.170486 0.175006 -0.00451994 
1093.27 -0.000361284 -0.000389281 -0.000841103 0.920217 0.16801 0.172652 -0.00464175 
1366.3 -0.000109435 0.000139806 -0.000233076 0.82361 0.0984054 0.100414 -0.00200905 
1495.91 0.000279638 0.000374742 -0.000217947 0.74248 0.0693884 0.069825 -0.000436634 
1502.51 0.00022785 6.87779e-05 4.01591e-05 0.748309 0.0679542 0.0683348 -0.000380647 
1301.38 4.74065e-05 -0.00017097 1.12134e-05 0.869762 0.115204 0.117833 -0.00262948 
1958.12 -0.000328224 0.00012851 -0.000342458 0.415049 -0.0233283 -0.0279209 0.00459264 
1805.59 0.000735977 0.000195811 0.000174562 0.524132 0.00616996 0.00319011 0.00297984 
1598.3 0.000567582 6.73179e-05 -8.11535e-06 0.648901 0.046416 0.0456231 0.000792933 
1757.86 0.000402307 8.11618e-06 0.000177944 0.556016 0.0148888 0.0123899 0.00249896 
2222.23 -9.78755e-05 -3.04702e-05 0.00070793 0.315868 -0.0724375 -0.0800071 0.00756959 
1578.67 0.000165329 4.43848e-05 -0.000295179 0.650662 0.050845 0.0500967 0.000748333 
1566.68 0.000390587 -5.07654e-05 -0.00043548 0.669174 0.0530784 0.052615 0.000463389 
1583.95 -0.000286017 -0.000195918 0.000105012 0.644265 0.0488757 0.0479663 0.000909412 
216.371 0.00307775 0.00325685 0.00466728 0.98938 0.678859 0.685047 -0.00618808 
3773.57 -7.70741e-05 2.4405e-05 -8.70605e-05 0.0865872 -0.306011 -0.319183 0.0131717 
1591.2 -0.000112283 2.19389e-05 0.00038309 0.64661 0.0495326 0.0474962 0.00203636 
2254.42 -0.000158649 0.000461811 0.00219476 0.306652 -0.076476 -0.0839984 0.00752231 
2139.65 -0.000451268 -0.000106927 -0.00044833 0.331348 -0.0566191 -0.0626846 0.00606545 
2111.62 -9.15874e-05 7.23968e-06 0.000221726 0.338877 -0.0522197 -0.0582363 0.00601659 
449.191 -0.00203478 0.00287685 -0.00269376 0.996514 0.430778 0.439301 -0.00852346 
1083.38 0.000144063 0.000841266 0.00193698 0.917405 0.171136 0.175003 -0.00386701 
1072.51 -3.077e-05 0.000409654 -0.00259629 0.889211 0.170871 0.175005 -0.00413382 
1083.03 -0.000136705 -0.000202088 -0.00633719 0.8856 0.171017 0.175007 -0.00398957 
1085.25 0.000564657 0.00111372 0.00169039 0.916624 0.17098 0.174999 -0.0040189 
1085.35 -0.00053876 2.21131e-05 -0.000571555 0.920852 0.169858 0.174519 -0.00466107 
1394.38 0.000837954 -0.000152865 -0.000576165 0.803426 0.0934325 0.0950037 -0.00157116 
1555.5 -0.000659866 -0.00121333 -0.000899803 0.72782 0.0570801 0.0568934 0.000186719 
1070.41 -0.000664171 4.83495e-05 -0.00254501 0.883768 0.170799 0.175005 -0.00420655 
1070.45 0.000351554 -3.10961e-05 -0.00192517 0.882976 0.170638 0.175007 -0.00436893 
1073.09 0.000817925 -7.87691e-05 -0.00168158 0.892138 0.171444 0.175971 -0.0045274 
1072.98 0.000112032 -0.000441924 -0.00574311 0.886902 0.174198 0.178487 -0.00428874 
1168.1 -0.000493128 0.000282552 -0.000349284 0.88601 0.149052 0.152589 -0.003537 
1114.02 2.27085e-05 -1.32184e-06 -0.000614518 0.918332 0.162519 0.166914 -0.00439538 
1737.79 4.81782e-05 -0.000213106 7.37277e-05 0.571474 0.0189251 0.016648 0.0022771 
3042.3 0.000555617 -6.30202e-05 8.80411e-05 0.0740822 -0.200849 -0.212725 0.0118761 
2941.89 0.000491234 0.000223691 5.30557e-05 0.0673015 -0.185411 -0.196638 0.0112269 
1331.09 -0.0011099 0.00113271 -0.00152065 0.838395 0.105692 0.108224 -0.00253259 
1270.17 0.00135954 0.0010475 0.00097914 0.879504 0.122795 0.12573 -0.00293567 
1392.03 2.10813e-05 -0.000175511 -0.000493814 0.819364 0.0928881 0.0945412 -0.00165311 
2522.35 -8.827e-05 4.49382e-05 0.000251646 0.170519 -0.120564 -0.129631 0.00906745 
1931 -0.000542861 0.000188538 8.4738e-06 0.433521 -0.0191443 -0.0235288 0.00438453 
1997.8 -0.000438832 0.000247439 0.000295904 0.393028 -0.0304615 -0.0353652 0.00490365 
1513.34 0.00149304 -0.000576254 4.80945e-06 0.737896 0.0642064 0.064658 -0.000451592 
1739.89 -4.82953e-05 6.91115e-05 -0.000108262 0.583053 0.0188488 0.016556 0.00229276 
1755.93 -0.000632869 -0.000467423 0.000477095 0.553832 0.014376 0.0117926 0.00258337 
1589.87 0.00030222 0.000152245 -8.69753e-05 0.654711 0.0482025 0.047443 0.000759541 
1853.03 0.00021652 -7.03009e-05 0.000257179 0.484007 -0.00356184 -0.00707598 0.00351415 
1979.58 -7.09604e-05 -0.000409141 -8.40152e-05 0.407662 -0.0274689 -0.0322974 0.00482849 
717.713 -0.000275478 -0.000898856 0.00238568 0.97855 0.295783 0.302508 -0.00672491 
725.617 0.00121447 0.000200616 -0.000876098 0.980285 0.293951 0.30129 -0.00733909 
774.402 0.00057837 -0.000432932 0.000313264 0.975268 0.271801 0.278653 -0.00685164 
731.31 0.00141077 0.00015162 -0.00368333 0.9652 0.283074 0.290624 -0.00755008 
1664.52 0.000599081 0.000244242 -0.000112651 0.644691 0.0337076 0.0324489 0.00125875 
1273.47 0.000679015 0.000606336 0.000406662 0.85495 0.12256 0.125327 -0.00276678 
408.129 -0.00132746 -0.000372781 -0.0129496 0.940461 0.424009 0.43005 -0.00604087 
121.094 -8.92182e-05 -0.00171105 -0.00286256 0.999174 1.89 1.89693 -0.00692993 
2234.7 -0.000181963 -0.000555877 -0.000728134 0.289438 -0.072682 -0.0800028 0.00732087 
1085.66 0.000394235 -0.000874058 -0.00768431 0.874938 0.172477 0.175004 -0.00252685 
458.651 0.00149411 -0.00112397 -0.0118022 0.926068 0.389041 0.396822 -0.00778119 
206.59 0.00206915 0.000313361 -0.00212502 0.99798 0.676427 0.685037 -0.00861014 
3735.06 -6.89747e-05 6.51209e-05 0.000197348 0.0859852 -0.299964 -0.313006 0.0130426 
145.891 -0.000233861 0.00492215 -0.0101417 0.953535 0.902357 0.909233 -0.00687626 
3821.96 8.03651e-06 3.92794e-05 -0.000203865 0.0731557 -0.311893 -0.325071 0.0131783 
1073.21 0.000213456 -0.00061343 -0.00367408 0.877287 0.172351 0.17501 -0.00265988 
719.103 -0.00253217 0.00256029 0.00187829 0.967292 0.297512 0.302525 -0.00501297 
3001.91 -0.00015142 -0.000135442 -0.000711444 0.127336 -0.193494 -0.204334 0.0108397 
1589.1 0.000178838 -0.000275965 -0.000113214 0.646612 0.0495531 0.0475016 0.0020515 
1588.81 0.000147495 -0.000369983 -5.34522e-05 0.646699 0.0495637 0.047501 0.00206276 
334.881 -0.000579103 0.000217856 -0.00346428 1 0.520785 0.529453 -0.00866788 
481.29 -0.00199372 -2.95517e-06 -0.00731124 0.981608 0.397122 0.405313 -0.00819046 
215.985 0.000805112 -0.00241031 0.00686353 0.985535 0.670805 0.678432 -0.00762689 
411.041 -0.0013572 0.000183698 -0.0103426 0.93957 0.421146 0.428734 -0.00758794 
466.052 0.00157228 -0.000621694 -0.0102401 0.943183 0.391417 0.39919 -0.0077732 
225.577 0.00457517 0.000203676 -0.00446741 0.998863 0.639048 0.647576 -0.0085276 
213.483 0.00439505 -9.47971e-05 -0.000395914 0.992901 0.647938 0.65624 -0.00830277 
440.135 -0.00184014 -0.000698728 -0.00245083 0.999995 0.429883 0.438507 -0.00862371 
506.099 0.00116551 -0.00120597 -0.0035484 0.999135 0.388336 0.396913 -0.00857722 
445.346 -0.000844427 -0.000542404 -0.00413452 0.995768 0.421356 0.430017 -0.00866024 
226.491 0.00154714 -0.000985937 -0.000682111 1 0.637516 0.646134 -0.00861756 
439.036 0.00341588 0.00109252 -0.00677284 0.999573 0.426104 0.43486 -0.00875565 
202.158 0.00187312 -0.00204987 -0.00471102 1 0.678654 0.687424 -0.00877015 
206.728 0.000766789 0.000526452 -0.00312398 0.998117 0.662156 0.670932 -0.00877604 
270.786 -0.00389153 -0.00206138 -0.0135015 0.999867 0.561065 0.570011 -0.00894527 
296.482 -0.000216367 0.000728749 -0.0108191 0.986347 0.511122 0.520028 -0.0089065 
138.678 -0.00531228 -0.00191473 0.00672469 0.999997 0.957912 0.966182 -0.00826972 
121.628 -0.000510196 -0.00625075 0.00747167 1 1.95269 1.95999 -0.00729263 
141.122 0.000590062 -0.00223086 0.0014947 1 0.918547 0.926776 -0.00822827 
133.567 0.0052003 0.00232971 0.0164568 1 1.14555 1.15346 -0.00790652 
139.943 -0.00267714 -0.00344391 0.0105787 0.999816 0.94335 0.951626 -0.00827577 
2223.8 -2.24517e-05 -3.37336e-05 0.000817417 0.311073 -0.0724679 -0.0800082 0.00754034 
116.577 5.73789e-05 -0.0054591 0.000295387 1 2.3351 2.34217 -0.00706688 
1588.04 8.15731e-05 0.00026695 -7.27197e-05 0.64853 0.0495522 0.0475008 0.00205143 
1072.43 0.000179053 0.000286682 -0.00367323 0.877315 0.172369 0.175012 -0.00264299 
408.131 -0.000218841 -0.000598223 -0.0131739 0.940526 0.424131 0.430051 -0.00592016 
1588.28 8.7382e-05 -0.000210014 0.000398257 0.648382 0.0495008 0.0474964 0.00200438 
1588.99 -0.00017656 8.40826e-05 -9.86253e-05 0.646443 0.0495355 0.0475009 0.00203461 
2222.67 0.000209153 0.000266641 0.000921079 0.318138 -0.0724773 -0.0800093 0.00753194 
406.841 -0.00232784 -0.000617119 -0.0148537 0.94057 0.424215 0.430044 -0.00582856 
719.135 -0.00251217 0.00256943 0.00188741 0.967522 0.297901 0.302526 -0.00462533 
457.177 -7.58456e-05 -3.28767e-05 0.00682216 0.988016 0.424287 0.43001 -0.00572292 
727.502 -0.00267643 -0.0025759 0.000802386 0.967521 0.297899 0.302517 -0.00461766 
408.078 0.00091234 0.000166074 -0.0129872 0.936071 0.423996 0.430052 -0.00605601 
216.669 -0.0034141 -0.00235514 0.00640605 0.987303 0.678271 0.685048 -0.0067765 
215.54 0.00299646 -0.00294755 0.00107984 0.986586 0.678886 0.685049 -0.00616324 
437.019 0.000115105 -0.000370255 -0.0277163 0.938072 0.424233 0.430071 -0.00583786 
2227.93 7.24722e-05 0.000113872 0.00103887 0.324761 -0.0741305 -0.0811357 0.00700519 
408.18 0.000893962 0.000118095 -0.0130452 0.940574 0.424224 0.43005 -0.00582618 
435.864 0.000283157 -0.000381975 -0.0256557 0.93806 0.424211 0.430069 -0.00585849 
408.164 0.000105873 0.0016529 -0.0127231 0.940548 0.424174 0.43005 -0.00587694 
216.411 -0.00317694 -0.00298823 0.00449834 0.986586 0.678888 0.685048 -0.00615969 