<VTKFile type="UnstructuredGrid">
<UnstructuredGrid>
<Piece NumberOfPoints="8481" NumberOfCells="47218">
<Points>
<DataArray type="Float64" Name="coordinates" NumberOfComponents="3" format="ascii">
2.48484 10 1.22434 
2.56372 9.87493 1.29678 
2.62687 10 1.16641 
2.59833 9.92814 1.22262 
2.43922 9.83724 1.16733 
2.51029 10 1.08703 
2.45 8.6975 1.0475 
2.45 8.1875 1.0475 
2.5775 8.4425 1.175 
2.45 8.4425 1.0475 
2.5775 8.6975 1.175 
2.8325 8.6975 1.175 
2.5775 8.9525 1.175 
2.705 8.825 1.175 
2.45 8.825 1.175 
2.5775 8.825 1.175 
2.44986 9.4602 1.1771 
2.4514 9.82605 1.30028 
2.45 9.08 1.175 
2.45 8.9525 1.175 
2.5775 9.7175 1.3025 
2.5775 9.4625 1.3025 
2.5775 7.9325 1.0475 
2.5775 7.9325 1.175 
2.5775 8.1875 1.175 
2.45 8.57 1.175 
2.45 8.6975 1.175 
2.45 8.315 1.175 
2.45 8.4425 1.175 
2.5775 8.315 1.175 
2.8325 8.1875 1.175 
2.705 8.315 1.175 
2.8325 8.4425 1.175 
2.45 8.1875 1.175 
2.45 8.06 1.175 
2.8325 7.9325 1.175 
2.45823 10 1.38152 
2.63838 10 1.30765 
2.76758 10 1.20919 
2.705 9.845 1.3025 
2.83704 9.86724 1.28916 
2.86358 9.92511 1.22651 
2.86353 10 1.1614 
2.9082 9.92605 1.24357 
2.56085 9.80465 1.4546 
2.44332 9.81233 1.42647 
2.69998 9.83238 1.42579 
2.39455 10 1.56361 
3.23559 9.82985 1.40997 
2.45 8.9525 1.0475 
2.5775 9.2075 1.175 
2.45 9.2075 1.175 
2.45 9.2075 1.0475 
2.45 9.335 1.175 
2.5775 9.4625 1.175 
2.4495 9.5818 1.18286 
2.57729 9.71132 1.1665 
2.44865 9.70625 1.17828 
2.56695 9.8516 1.16023 
2.6222 10 1.06634 
2.73794 10 1.10389 
2.66448 9.92385 1.11152 
2.50496 9.9225 1.01477 
2.55991 10 0.982046 
2.45 9.7175 1.0475 
2.4371 9.84615 1.03482 
2.705 9.845 1.175 
2.78104 9.91804 1.07854 
2.77 9.95002 1.02794 
2.83512 9.93445 1.09259 
2.83419 10 1.03784 
2.8325 9.7175 1.3025 
2.96 9.845 1.3025 
3.01025 10 1.20375 
3.08728 9.84864 1.30122 
3.14171 10 1.22274 
2.705 9.58567 1.17933 
2.57718 9.58449 1.18038 
2.56966 9.85096 1.03561 
2.70125 10 0.996939 
2.6278 9.92511 0.961464 
2.64049 9.92625 0.999384 
2.8325 9.7175 1.175 
2.705 9.71633 1.17561 
2.82085 9.85148 1.16048 
2.89693 9.92319 1.03955 
2.88991 9.9332 1.07215 
2.88922 9.91005 1.10108 
2.41505 10 0.976771 
2.50934 10 0.867042 
2.96 9.845 1.175 
3.03431 9.92246 1.11935 
3.0875 9.7175 1.3025 
3.21007 9.83625 1.29945 
3.26814 10 1.28932 
3.35354 9.87615 1.28506 
2.96653 10 1.07499 
3.02351 9.9225 1.06859 
3.10546 10 1.10403 
2.705 7.9325 1.0475 
2.5775 8.06 1.0475 
2.5775 8.57 1.0475 
2.45 8.57 1.0475 
2.705 8.1875 1.0475 
2.5775 8.1875 1.0475 
2.5775 8.1875 0.92 
2.5775 8.315 1.0475 
2.45 8.315 1.0475 
2.5775 8.4425 0.92 
2.705 8.4425 1.0475 
2.5775 8.4425 1.0475 
2.705 8.315 1.0475 
2.8325 8.315 1.0475 
3.0875 8.4425 1.175 
2.45 8.5721 0.918002 
2.705 8.6975 1.0475 
2.5775 8.6975 1.0475 
2.45 8.825 1.0475 
2.5775 8.6975 0.92 
2.5775 8.825 1.0475 
2.8325 8.9525 1.175 
2.45 8.6975 0.92 
2.45 8.82701 0.918302 
2.705 8.9525 1.0475 
2.5775 8.9525 1.0475 
2.45 9.08 1.0475 
2.5775 8.9525 0.92 
2.5775 9.08 1.0475 
2.8325 9.2075 1.175 
2.705 9.335 1.175 
2.5775 9.335 1.175 
2.8325 9.4625 1.175 
2.705 9.46133 1.17611 
2.96 8.4425 1.0475 
2.8325 8.4425 1.0475 
2.705 8.57 1.0475 
2.8325 8.4425 0.92 
2.8325 8.57 1.0475 
3.0875 8.6975 1.175 
2.96 8.6975 1.0475 
2.8325 8.6975 1.0475 
2.705 8.825 1.0475 
2.8325 8.6975 0.92 
2.8325 8.825 1.0475 
3.0875 8.9525 1.175 
3.3425 8.6975 1.175 
3.215 8.825 1.175 
2.45 8.06103 0.918994 
2.45 8.1875 0.92 
2.45 8.315 0.92 
2.45 8.4425 0.92 
2.8325 7.6775 0.92 
2.705 7.6775 0.92 
2.8325 7.805 1.0475 
2.705 7.805 1.0475 
2.8325 7.9325 1.0475 
2.8325 7.9325 0.92 
2.8325 8.06 1.0475 
2.705 8.06 1.0475 
2.8325 8.1875 0.92 
2.96 8.1875 1.0475 
2.8325 8.1875 1.0475 
2.705 7.80603 0.91904 
3.3425 7.4225 1.175 
2.96 7.805 1.0475 
3.0875 7.6775 0.92 
3.98 6.275 0.92 
4.1075 6.4025 0.92 
3.3425 7.6775 1.175 
3.215 7.6775 1.0475 
3.0875 7.805 1.0475 
3.0875 7.9325 1.175 
2.96 7.9325 1.0475 
3.215 7.805 1.175 
3.3425 7.9325 1.175 
3.0875 8.1875 1.175 
3.3425 8.1875 1.175 
3.215 8.315 1.175 
3.3425 8.4425 1.175 
2.96 8.57 1.175 
2.705 8.57 1.175 
2.5775 8.4425 1.3025 
2.705 8.4425 1.175 
2.5775 8.57 1.175 
2.8325 8.57 1.175 
2.5775 8.6975 1.3025 
2.705 8.6975 1.175 
2.96 9.08 1.175 
2.96 8.825 1.175 
2.8325 8.6975 1.3025 
2.96 8.6975 1.175 
2.8325 8.825 1.175 
2.96 8.9525 1.175 
3.0875 8.825 1.175 
2.705 9.08 1.175 
2.5775 8.9525 1.3025 
2.705 8.9525 1.175 
2.705 8.825 1.43 
2.5775 9.08 1.175 
2.8325 8.9525 1.3025 
2.8325 9.08 1.175 
2.5775 9.2075 1.3025 
2.705 9.2075 1.175 
2.44937 8.82605 1.41226 
2.44787 9.54891 1.65031 
2.44914 9.33537 1.40916 
2.43544 9.59645 1.41777 
2.44955 9.08258 1.4145 
2.705 9.59 1.43 
3.10055 9.79914 1.44177 
2.83249 9.2076 1.28884 
2.70495 9.33529 1.41194 
2.83226 9.46234 1.28892 
3.08646 9.46357 1.27243 
3.0875 8.9525 1.3025 
3.08747 9.20768 1.28817 
2.94845 9.59263 1.40397 
3.215 8.57 1.175 
3.215 8.4425 1.175 
3.0875 8.57 1.175 
3.0875 8.6975 1.3025 
3.215 8.6975 1.175 
3.35455 9.81931 1.43322 
3.3446 9.72191 1.54001 
3.3425 8.9525 1.3025 
3.215 8.825 1.43 
4.3625 5.8925 0.92 
4.235 6.02 1.0475 
3.3425 8.6975 1.3025 
2.96 8.06 1.175 
2.705 8.06 1.175 
2.5775 7.9325 1.3025 
2.705 7.9325 1.175 
2.5775 8.06 1.175 
2.8325 8.06 1.175 
2.5775 8.1875 1.3025 
2.705 8.1875 1.175 
2.45 8.57 1.43 
2.45 8.315 1.43 
2.96 8.315 1.175 
2.8325 8.1875 1.3025 
2.96 8.1875 1.175 
2.705 8.315 1.43 
2.8325 8.315 1.175 
2.8325 8.4425 1.3025 
2.96 8.4425 1.175 
3.0875 8.315 1.175 
3.0875 8.4425 1.3025 
2.45 8.06 1.43 
2.45 7.805 1.43 
2.8325 7.9325 1.3025 
2.96 7.9325 1.175 
2.705 7.805 1.43 
2.96 7.805 1.175 
3.0875 7.805 1.175 
3.8525 7.04 1.175 
3.215 7.6775 1.175 
3.215 7.55 1.175 
3.5975 7.4225 1.175 
3.5975 7.6775 1.175 
3.47 7.55 1.175 
3.3425 7.4225 1.3025 
3.47 7.4225 1.175 
3.3425 7.55 1.175 
4.1075 6.275 1.175 
4.1075 6.275 1.0475 
3.98 6.4025 1.0475 
4.1075 6.4025 1.0475 
4.1075 6.4025 1.175 
4.235 6.4025 1.0475 
4.1075 6.53 1.0475 
3.98 6.53 1.0475 
4.1075 6.6575 1.175 
3.98 6.6575 1.0475 
2.83284 9.84145 1.43201 
2.96863 9.83838 1.43143 
2.62939 10 1.51834 
2.86303 10 1.34667 
3.08449 10 1.37631 
2.69971 9.62575 1.67145 
2.4645 9.60067 1.97135 
2.45382 9.8219 1.66973 
3.47399 9.82908 1.43898 
3.27175 10 1.53083 
3.215 9.59 1.685 
3.21259 9.84159 1.6799 
3.45567 9.81548 1.67045 
3.59926 9.84202 1.43293 
3.59563 9.72586 1.54066 
3.72203 9.83769 1.66845 
3.72527 9.84023 1.43208 
3.0875 9.2075 1.175 
2.96 9.2075 1.175 
2.95998 9.33089 1.17784 
2.8325 9.335 1.175 
3.20039 9.61676 1.38883 
3.3425 9.7175 1.3025 
3.46944 9.84205 1.30095 
3.49943 10 1.30886 
3.75615 10 1.42611 
3.60662 9.86149 1.30297 
3.21478 9.33656 1.385 
3.3425 9.2075 1.3025 
3.34235 9.46277 1.29541 
3.215 9.335 1.175 
3.0875 9.335 1.175 
3.59739 9.72487 1.29485 
3.725 9.845 1.3025 
3.79806 9.92881 1.27559 
2.45 8.9525 0.92 
2.45 9.08101 0.91905 
2.705 9.2075 1.0475 
2.5775 9.2075 1.0475 
2.5775 9.2075 0.92 
2.5775 9.335 1.0475 
2.45 9.33606 0.918951 
2.705 9.4625 1.0475 
2.5775 9.4625 1.0475 
2.5775 9.4625 0.92 
2.5775 9.59 1.0475 
2.44968 9.58859 1.04748 
2.44777 9.85022 0.917665 
2.57647 9.74246 0.952924 
2.70477 9.71859 1.0474 
2.57553 9.72078 1.04641 
2.69843 9.86245 1.03465 
2.57429 9.84997 0.91987 
2.6458 10 0.878913 
2.80828 10 0.918063 
2.45 9.4625 0.92 
2.44994 9.59242 0.918301 
2.44965 9.72296 0.918539 
3.0875 9.4625 1.175 
2.96 9.4625 1.175 
2.95958 9.58046 1.1828 
2.83245 9.58664 1.17825 
2.82443 9.86719 1.0303 
2.92763 10 0.971774 
2.88049 9.92045 1.00381 
3.0875 9.7175 1.175 
2.96 9.7175 1.175 
3.08373 9.84473 1.17039 
3.16187 9.9225 1.06988 
3.24022 10 1.1403 
3.215 9.845 1.175 
3.27661 9.92873 1.05743 
3.29253 9.9216 1.09268 
3.36401 10 1.16722 
3.01135 9.9225 1.01242 
2.8325 9.58989 1.04765 
2.70481 9.59007 1.04786 
2.70191 9.85164 0.91493 
2.8322 9.74372 0.952788 
2.95934 9.71895 1.04702 
2.83042 9.72243 1.04686 
2.95146 9.85105 1.0421 
2.83627 9.86416 0.910769 
2.45 9.845 0.7925 
2.37074 10 0.79405 
2.5775 9.845 0.7925 
2.55521 10 0.70343 
3.3425 9.4625 1.175 
3.21472 9.45829 1.17804 
3.21486 9.58704 1.17775 
3.0875 9.58886 1.17614 
3.07926 9.8531 1.0387 
3.14894 9.92295 1.01709 
3.3425 9.7175 1.175 
3.2148 9.71538 1.17574 
3.33989 9.84587 1.17244 
3.44949 10 1.11711 
3.39667 9.9225 1.08024 
3.4104 9.91317 1.12373 
3.46088 9.84703 1.16814 
2.96232 10 0.870409 
3.0589 10 0.976576 
3.13959 9.92297 0.963677 
3.33833 10 1.06463 
3.29065 9.93755 1.01499 
3.20987 10 1.01353 
3.33694 9.93967 0.990676 
3.27521 9.92111 0.96796 
3.51694 9.93372 1.06177 
3.49965 10 1.03634 
3.57561 10 1.10934 
3.8525 9.845 1.43 
3.85465 9.88229 1.31635 
3.88806 10 1.24663 
3.98294 9.83114 1.42985 
2.705 7.9325 0.92 
2.705 8.06 0.92 
2.5775 8.06 0.92 
2.705 8.57 0.92 
2.5775 8.57 0.92 
2.5775 8.1875 0.7925 
2.705 8.1875 0.92 
2.705 8.31606 0.918951 
2.5775 8.315 0.92 
2.5775 8.44243 0.795704 
2.705 8.4425 0.92 
3.215 7.9325 1.0475 
3.0875 7.9325 1.0475 
3.0875 7.9325 0.92 
3.0875 8.06 1.0475 
2.96 8.06 1.0475 
3.215 8.1875 1.0475 
3.0875 8.1875 1.0475 
3.0875 8.1875 0.92 
3.0875 8.315 1.0475 
2.96 8.315 1.0475 
3.5975 7.9325 1.175 
3.5975 8.1875 1.175 
3.215 8.315 1.0475 
3.3425 8.315 1.0475 
3.5975 8.4425 1.175 
3.3425 8.57 1.175 
3.47 8.57 1.175 
2.8325 8.315 0.92 
2.96 8.315 0.92 
3.215 8.4425 1.0475 
3.0875 8.4425 1.0475 
3.0875 8.4425 0.92 
3.0875 8.57 1.0475 
2.96 8.57 1.0475 
3.47 8.4425 1.0475 
3.3425 8.4425 1.0475 
3.215 8.57 1.0475 
3.3425 8.4425 0.92 
3.3425 8.57 1.0475 
3.5975 8.6975 1.175 
3.47 8.6975 1.175 
3.47 8.825 1.175 
3.3425 8.825 1.175 
2.44993 8.56706 0.670442 
2.5775 8.6975 0.7925 
2.705 8.6975 0.92 
2.5775 8.825 0.92 
2.705 8.82999 0.915381 
2.96 8.9525 1.0475 
2.8325 8.9525 1.0475 
2.8325 8.9525 0.92 
2.8325 9.08 1.0475 
2.705 9.08 1.0475 
2.44994 8.81299 0.686606 
2.5775 8.95168 0.808731 
2.705 8.9525 0.92 
2.5775 9.08 0.92 
2.705 9.083 0.917394 
2.96 9.2075 1.0475 
2.8325 9.2075 1.0475 
2.8325 9.2075 0.92 
2.8325 9.335 1.0475 
2.705 9.335 1.0475 
2.8325 9.4625 0.92 
2.96 9.4625 1.0475 
2.8325 9.4625 1.0475 
2.8325 8.4425 0.7925 
2.96 8.4425 0.92 
2.8325 8.57 0.92 
2.96 8.57101 0.919069 
3.215 8.6975 1.0475 
[...]
<PointData>
<DataArray type="Float64" Name="proteus_solution" NumberOfComponents="8" format="ascii">
931.375 -0.000229266 -0.000800271 -0.00156073 0.960722 0.218166 0.22435 -0.00618424 
733.885 0.000888694 0.00202958 -0.00218732 0.997205 0.289224 0.296785 -0.00756054 
1124.08 0.000215825 -0.00183352 -0.000802662 0.931658 0.161905 0.166415 -0.0045105 
942.846 0.000192322 1.64927e-05 -0.00164338 0.982222 0.21659 0.222629 -0.00603856 
1110.1 -3.36938e-05 -0.000783127 -0.0014036 0.908279 0.162862 0.167339 -0.00447761 
1422.59 0.000207493 -0.000401239 -0.000564976 0.768581 0.0857194 0.0870317 -0.00131225 
1585.87 6.20111e-05 2.25306e-05 -0.000252876 0.643799 0.0485594 0.0475029 0.00105653 
1587.39 6.85825e-05 -0.000101173 -4.45472e-05 0.644826 0.0486879 0.0475009 0.00118705 
1086.01 0.000117749 0.00124417 0.00129149 0.917378 0.171467 0.175004 -0.00353713 
1586.62 4.68449e-05 -0.000295202 0.000240317 0.644029 0.0486283 0.047498 0.00113034 
1085.06 -0.000642317 0.0010524 0.00161635 0.917193 0.171337 0.174999 -0.00366186 
1084.05 -0.000219939 0.00110344 0.00134114 0.917254 0.17138 0.175003 -0.00362314 
1082.57 3.68832e-05 0.00105897 0.00190448 0.91697 0.171182 0.175005 -0.00382334 
1082.04 0.00017916 -0.000292333 -0.00764853 0.873023 0.171219 0.174997 -0.00377811 
1074.73 -0.000231563 -0.000179277 -0.00499662 0.882066 0.171117 0.17502 -0.00390311 
1068.89 -0.000261607 0.00156095 -0.00294288 0.877877 0.171056 0.175007 -0.00395114 
1065.82 -0.000548851 -0.000812521 -0.00232587 0.894657 0.172666 0.17711 -0.0044436 
727.281 -0.000498402 0.00129702 -0.000738878 0.995636 0.292787 0.30029 -0.00750383 
1083.26 0.000104345 -0.00054632 -0.00808592 0.880694 0.170979 0.175024 -0.00404525 
1072.06 -7.2919e-05 -0.0019819 -0.0013831 0.883173 0.170937 0.175009 -0.00407194 
719.612 0.000434952 0.00171782 0.000356331 0.986585 0.295172 0.302506 -0.00733446 
719.943 0.00044919 -0.00120898 0.000144841 0.97041 0.295726 0.302506 -0.00677976 
1590.38 -0.00011802 -5.15861e-05 0.000270495 0.64543 0.0487821 0.0474973 0.00128482 
1087.01 5.41552e-05 0.00111004 0.00151599 0.920081 0.171641 0.175008 -0.0033667 
1087.74 -0.000539066 0.000615375 0.00139211 0.90179 0.17158 0.175002 -0.00342285 
1084.11 -4.45077e-05 -5.3479e-05 -0.00811368 0.873131 0.17129 0.175034 -0.0037449 
1072.25 -0.000430075 0.00249274 -0.00165761 0.877921 0.171097 0.175017 -0.00391978 
1079.27 -0.000157563 -0.000352119 -0.00606893 0.873291 0.171395 0.175023 -0.00362814 
1073.25 -0.00025743 -0.00184535 -0.00279314 0.875577 0.171226 0.175015 -0.00378931 
1071.35 0.000106083 0.000390235 -0.00362645 0.875721 0.17132 0.175008 -0.0036881 
1086.49 -6.33769e-05 0.000965654 0.00141691 0.917592 0.171617 0.175006 -0.00338843 
1084.1 0.000305743 -0.000641573 -0.00771321 0.873416 0.171476 0.175001 -0.00352485 
1087.07 0.000906969 0.00204 0.00151735 0.917443 0.171512 0.174999 -0.00348676 
1073.84 -0.000521658 0.00186217 -0.00095529 0.881661 0.171322 0.175018 -0.00369624 
1085.65 7.97191e-05 -0.000318842 -0.00867046 0.874939 0.171487 0.175041 -0.00355419 
1088.24 0.000905334 0.00196402 0.00155598 0.915448 0.171707 0.175001 -0.00329402 
548.594 0.00122114 -0.00213367 -0.000148478 1 0.372913 0.38154 -0.00862668 
697.018 0.00169937 0.00104238 -0.00198275 0.990677 0.299661 0.307668 -0.00800704 
975.56 7.61919e-05 0.00119008 -0.00184536 0.963831 0.203173 0.209203 -0.00603006 
713.955 0.000869014 0.00114638 -0.00017132 0.98934 0.294909 0.302516 -0.00760678 
746.505 -0.00051657 0.00295343 -0.00303702 0.997838 0.281668 0.289197 -0.00752891 
927.35 0.000396076 -0.0010833 -0.00193518 0.992857 0.220223 0.226528 -0.0063044 
1134.24 0.000481787 -0.0015684 -0.000242734 0.934495 0.156741 0.161409 -0.00466729 
876.376 0.000493784 -0.00113102 -0.00105552 0.992077 0.236888 0.24359 -0.00670205 
419.552 0.00100377 -0.000515932 -0.00311168 0.999686 0.445787 0.454611 -0.00882321 
460.81 0.000783365 -0.00145078 -0.00451005 0.999964 0.4177 0.42648 -0.00877993 
450.154 -0.00039061 0.00286459 -0.00394436 0.996211 0.417051 0.425821 -0.00876951 
290.516 -0.00177042 0.0076591 -0.00376625 1 0.554545 0.56364 -0.00909473 
493.563 -5.04822e-05 -0.00123053 -0.00462297 0.998398 0.401379 0.409988 -0.00860855 
1584.85 6.00675e-05 -0.000385575 0.000591836 0.643579 0.0484798 0.0474945 0.000985304 
1085.15 -0.000335781 0.000493814 0.00126632 0.91676 0.171035 0.175001 -0.00396529 
1072.66 -0.000744345 0.00160209 -0.00119137 0.884357 0.170789 0.17501 -0.00422113 
1585.48 7.8343e-05 -0.000105902 -0.000166836 0.644643 0.0484521 0.0475021 0.000950049 
1077.41 -0.000451949 -0.000480227 -0.00516484 0.888471 0.170816 0.175009 -0.00419299 
1084.79 6.37846e-05 0.00101199 0.0013861 0.909536 0.170873 0.175 -0.00412698 
1058.08 0.000132091 -0.000641313 -0.00570078 0.899561 0.17831 0.18288 -0.00456942 
1118.69 0.000216181 -0.000165222 0.000252875 0.903067 0.162409 0.1665 -0.00409121 
1067.19 -0.000106619 0.00080729 -0.00129132 0.904977 0.173593 0.17829 -0.0046973 
1136.43 0.00024717 -0.000686591 -0.00101686 0.903635 0.156009 0.160234 -0.00422524 
1512.45 0.000291433 0.000233478 -0.000806657 0.730747 0.0659802 0.0663489 -0.000368688 
1354.35 -4.82183e-05 -0.000314725 -0.00010704 0.841043 0.10166 0.103892 -0.00223127 
1327.76 0.000264464 -0.000116332 0.00022813 0.84992 0.109214 0.111523 -0.00230904 
1747.22 7.84944e-05 0.000317056 0.000162824 0.560475 0.0170756 0.0147714 0.00230424 
1906.98 6.61576e-06 -7.73942e-05 -7.87664e-05 0.449792 -0.0140049 -0.0179533 0.00394837 
1590.39 -7.37451e-05 0.00029427 -0.000595648 0.645118 0.0483498 0.047506 0.00084379 
1649.9 -0.000142521 0.000361201 -0.000423258 0.618519 0.036162 0.0348275 0.00133443 
1079.56 0.000582688 -0.000558683 -0.000513279 0.91715 0.170175 0.175006 -0.0048314 
1461.67 0.000332426 0.000710982 -8.75428e-05 0.779191 0.0776636 0.0785398 -0.000876182 
1687.52 -7.85561e-05 -0.000734487 0.000509269 0.610225 0.0296 0.0279378 0.00166221 
1403 -0.000108025 -0.000433804 -5.24007e-05 0.846096 0.0909614 0.0925982 -0.00163683 
1638.35 0.000401335 -0.000996607 0.000463214 0.668927 0.0389386 0.0378372 0.00110139 
714.45 3.68142e-05 0.000786241 -0.000407869 0.985375 0.295167 0.302526 -0.00735833 
717.439 -0.000292326 0.00166568 -0.000603729 0.994933 0.294882 0.302535 -0.00765363 
987.379 -0.000505111 0.000514173 -0.000732338 0.961786 0.197768 0.203777 -0.00600953 
716.381 -3.60678e-05 0.0029041 -0.000839567 0.999081 0.293574 0.301239 -0.00766415 
932.619 -6.07323e-05 0.00119446 -0.00247528 0.973667 0.216438 0.222774 -0.00633631 
1069.3 0.000121045 -0.000310025 -0.0061893 0.880636 0.174941 0.179335 -0.00439473 
1052.01 -5.51035e-05 0.000733368 -0.00217283 0.916512 0.175746 0.180388 -0.00464262 
1646.04 0.000296912 -0.000164511 -0.000405391 0.620461 0.0368735 0.0356096 0.00126391 
1832.6 -8.48434e-05 -0.000165755 -0.000166669 0.500702 0.000191102 -0.00305985 0.00325095 
2015.83 4.08753e-05 -4.84427e-05 0.00016155 0.374769 -0.0335778 -0.0385377 0.00495987 
1822.64 6.86122e-05 5.48436e-05 0.000138535 0.50932 0.00243525 -0.000617125 0.00305238 
1087.74 3.65399e-06 -0.000125342 0.000150678 0.914821 0.170612 0.175012 -0.00439928 
1071.8 0.000561064 0.00136365 -0.00167541 0.886357 0.171001 0.175624 -0.00462327 
1133.5 -0.000269686 -0.000546441 -0.00092173 0.908732 0.156153 0.160494 -0.00434139 
1632.85 -1.8968e-05 -0.000620681 0.000196495 0.673127 0.0406083 0.0395484 0.00105992 
1488.46 0.000838807 -0.00109818 -0.000672487 0.80427 0.0714772 0.0721455 -0.000668304 
1368.08 -0.000235737 0.000499276 0.000196727 0.829787 0.0990936 0.101083 -0.00198915 
1929.6 8.04099e-05 -0.000765475 0.000102093 0.43993 -0.0189449 -0.0232299 0.00428501 
2541.95 -0.00011984 -0.000558768 -3.89935e-05 0.154104 -0.123861 -0.132958 0.00909703 
1082.29 3.64283e-05 0.00012598 -0.000684081 0.922816 0.170179 0.175015 -0.00483549 
1295.19 0.000121504 4.78124e-05 0.000570421 0.868341 0.116619 0.11936 -0.00274042 
714.72 0.00057521 0.000720463 -0.000820773 0.99147 0.295142 0.302511 -0.00736887 
727.126 -0.000947382 0.000705631 -0.000388556 0.996476 0.291928 0.299457 -0.00752892 
740.754 -0.000465156 -0.000697594 -0.00210918 0.983986 0.281659 0.289365 -0.00770615 
763.651 0.000576559 0.00160055 -0.000993916 0.993003 0.277775 0.285074 -0.00729882 
1469.62 1.23828e-05 0.000321581 -0.000474745 0.765015 0.0740243 0.074996 -0.000971786 
1502.08 -1.02767e-05 0.000174102 0.000224045 0.747653 0.0681522 0.0685856 -0.000433413 
1351.57 -0.000324179 -0.000458951 -6.31335e-05 0.829119 0.101821 0.104045 -0.00222473 
1587.33 4.92535e-05 0.000128393 -0.00050801 0.64457 0.0488247 0.0475051 0.00131958 
1587.63 7.40937e-05 -0.000189842 0.000114504 0.643098 0.0487524 0.0474992 0.00125311 
1586.19 0.000123632 -0.000117946 -1.0694e-05 0.643992 0.0486157 0.0475004 0.00111527 
1588.75 -0.00012145 0.000370437 -0.000937164 0.643837 0.0485982 0.0475097 0.00108842 
1587.06 3.59665e-05 -0.000224126 -0.000399235 0.644376 0.0487498 0.0475039 0.00124583 
1589.74 -9.98463e-05 -0.000338903 0.000538001 0.644226 0.0487091 0.0474946 0.00121454 
2232.52 -7.24591e-05 -0.000586126 -0.000624097 0.287409 -0.0733878 -0.0800023 0.00661442 
1587.26 -0.00013592 9.92771e-05 -0.000191691 0.644193 0.0486995 0.0475019 0.00119765 
1588.63 7.65333e-05 -8.33487e-05 -0.000962521 0.644151 0.0486714 0.0475099 0.0011615 
2232.46 -9.29738e-05 -0.000519231 -0.000749653 0.286956 -0.0734355 -0.0800034 0.00656791 
1586.31 2.59397e-05 0.000128384 -0.000463068 0.644176 0.048685 0.0475047 0.00118021 
1589.3 -7.21532e-05 5.2412e-05 0.000394457 0.644098 0.0486528 0.047496 0.00115675 
1589.55 -0.000142985 9.71712e-05 -0.00106633 0.644294 0.0487295 0.0475106 0.00121889 
1586.99 4.16391e-05 0.000304929 -0.000190499 0.644318 0.0487297 0.0475019 0.00122781 
1086.43 3.6813e-05 0.00138151 0.00152507 0.91749 0.171545 0.175004 -0.00345867 
2240.49 -8.96225e-05 0.00052437 0.00250999 0.312284 -0.0753457 -0.0820227 0.00667702 
1585.16 3.61585e-05 -0.00029154 -0.000178048 0.643965 0.0486062 0.0475018 0.00110436 
1587.59 -5.5282e-05 -0.000224787 0.000826942 0.643875 0.0485771 0.0474917 0.00108538 
1586.21 0.00011713 -0.000115043 -0.00069259 0.643634 0.0485225 0.0475071 0.00101537 
2231.36 -0.000103172 -0.000644019 -0.00050315 0.287378 -0.0734602 -0.0800034 0.00654314 
1585.21 -0.000146731 7.15461e-05 -0.000283875 0.643633 0.0485541 0.0475029 0.0010512 
1084.27 0.000783529 0.00201964 0.00175513 0.917039 0.17123 0.174998 -0.00376817 
2220.9 4.81238e-05 0.000306446 0.000866317 0.313441 -0.0732768 -0.0800087 0.00673188 
2237.29 -8.35904e-05 0.000376475 0.00224067 0.307267 -0.0750385 -0.08172 0.00668154 
1584.4 2.8151e-05 0.000159023 -0.00027445 0.64368 0.0485284 0.0475028 0.00102556 
1587.09 -8.19017e-06 -0.00011062 0.000344099 0.643685 0.0485053 0.0474966 0.00100871 
1587.31 -0.000121761 0.000414902 -0.00103456 0.643515 0.0484659 0.0475107 0.000955208 
2231.27 -0.000127747 -0.000544996 -0.000868536 0.285605 -0.0734503 -0.080004 0.00655371 
1584.88 0.000104295 -0.000216545 0.000258097 0.643477 0.0484721 0.0474978 0.00097432 
1082.39 -0.000193381 0.000736758 0.00190435 0.919198 0.171051 0.175002 -0.00395082 
1081.91 0.000563833 -0.000616923 -0.00635226 0.882556 0.170929 0.175006 -0.00407778 
1071.97 -0.00018317 0.000443752 -0.00273878 0.884605 0.170761 0.175004 -0.00424301 
1084.12 7.52712e-05 0.00113335 0.00201067 0.919727 0.17091 0.174999 -0.00408899 
1064.52 0.00037334 -0.000497644 -0.0033855 0.880034 0.171796 0.176119 -0.00432299 
1586.94 3.1897e-05 -0.000269929 0.000306038 0.644207 0.0486908 0.0474974 0.00119342 
1589.03 -0.000134432 0.000125659 0.000747 0.644185 0.0486851 0.0474926 0.00119254 
1587.37 7.33534e-06 5.01891e-05 -0.00080467 0.644063 0.0486405 0.0475083 0.00113223 
2232.38 -0.000121143 -0.000737052 -0.000726647 0.287354 -0.0734069 -0.0800031 0.00659624 
1586.51 0.000138454 -0.000344915 -0.000137529 0.644048 0.0486477 0.0475018 0.00114593 
1085.89 -0.000786858 0.000994241 0.00145248 0.917309 0.171418 0.174999 -0.0035801 
1586.05 3.98768e-06 -2.3956e-06 -0.000298604 0.64402 0.048629 0.0475033 0.00112568 
1588.32 0.000112559 -0.000115687 0.000455479 0.643988 0.0486142 0.0474954 0.0011188 
1587.55 -0.000175166 0.000126327 -0.00095578 0.643679 0.0485723 0.0475096 0.00106273 
2231.52 -0.000176754 -0.000454204 -0.000615224 0.287551 -0.0734267 -0.0800031 0.00657634 
1585.01 6.63581e-05 0.000303277 -0.000175372 0.643764 0.0485805 0.0475018 0.00107867 
1082.64 -9.21387e-05 0.00116479 0.00179387 0.917081 0.171259 0.175006 -0.00374667 
1085.23 -0.000388192 0.00129705 0.00119866 0.917345 0.171444 0.175002 -0.00355792 
1082.71 -0.00011045 -0.00012837 -0.00772237 0.87314 0.171296 0.175002 -0.00370619 
2235.18 -9.3087e-05 0.000444681 0.00201719 0.309471 -0.0742806 -0.0810258 0.00674523 
2222.11 -3.95204e-05 6.94696e-05 0.00084414 0.312348 -0.073203 -0.0800085 0.00680548 
2228.62 -8.32613e-05 0.000346024 0.00241351 0.313717 -0.0733554 -0.0800242 0.00666882 
2221.11 2.15569e-05 6.04808e-05 0.0012468 0.314805 -0.0732545 -0.0800125 0.00675797 
2233.81 -0.000125191 -0.00054503 -0.000654473 0.28657 -0.0732863 -0.0800026 0.00671631 
2222.65 1.21759e-05 0.000263939 0.000974054 0.319362 -0.0731168 -0.0800098 0.00689297 
1587.88 6.02569e-05 0.000282646 -0.000300402 0.644724 0.0488717 0.047503 0.00136869 
1590.37 -0.00017069 0.000133017 -0.00112348 0.644078 0.0488564 0.0475112 0.00134519 
1590.29 -0.000120466 8.12167e-05 0.000745324 0.644588 0.0488291 0.0474925 0.00133667 
2233.32 -0.000116055 -0.000772968 -0.000773479 0.286847 -0.0733114 -0.0800022 0.0066908 
1588.04 0.000126299 -0.000292591 -0.000265065 0.644471 0.0487968 0.0475032 0.00129367 
1588.83 2.7153e-06 2.5664e-05 -0.000843573 0.640943 0.0487891 0.0475085 0.00128056 
2232.88 -0.000201906 -0.000473358 -0.000610834 0.287528 -0.0733631 -0.0800019 0.00663883 
1587.99 -3.99492e-05 -7.8949e-05 -0.000128365 0.644397 0.0487626 0.0475015 0.00126112 
1590.09 8.80551e-05 -0.000159491 0.000392647 0.644391 0.0487553 0.0474959 0.00125941 
2235.14 -8.38539e-05 0.000470481 0.00219593 0.313791 -0.0741764 -0.0809817 0.00680531 
1088.9 0.000824648 0.00172556 0.00179564 0.920457 0.171908 0.175002 -0.00309442 
1589.84 9.54371e-05 -0.000109784 -0.000933311 0.646571 0.0488738 0.0475094 0.0013644 
2233.74 -7.12056e-05 -0.000734602 -0.000735013 0.285161 -0.0732328 -0.0800013 0.00676843 
2230.03 -9.00132e-05 0.000379324 0.00229214 0.314352 -0.0727892 -0.0800229 0.00723376 
2234.05 -0.000151751 -0.000544299 -0.000913701 0.288106 -0.0728602 -0.0800023 0.00714218 
1088.04 -0.000179889 0.000910729 0.00118595 0.917903 0.171836 0.175004 -0.00316833 
1588.66 7.73717e-05 -0.000199793 -0.000392497 0.644743 0.0488994 0.0475038 0.00139561 
1588.73 -0.000123693 2.47393e-05 -0.000259713 0.64589 0.0488788 0.0475025 0.00137628 
1087.6 2.54166e-05 0.00119425 0.00162372 0.917765 0.171738 0.175009 -0.0032703 
1587.86 1.54056e-05 -0.000288717 0.00042072 0.64463 0.0488511 0.0474962 0.00135488 
1085.86 1.73697e-05 -0.000476472 -0.0078255 0.879999 0.17172 0.175004 -0.0032843 
1089.14 0.000740047 0.00190529 0.00146747 0.917805 0.171767 0.175002 -0.00323521 
1088.38 -0.000668599 0.000649889 0.00132946 0.917638 0.171649 0.175002 -0.00335248 
1087.75 -9.64034e-05 0.00104407 0.00130714 0.917683 0.171681 0.175005 -0.00332386 
1084.81 4.85569e-05 -0.000517491 -0.00782775 0.873534 0.171554 0.175011 -0.0034567 
1087.87 0.000607636 0.00202064 0.00162541 0.917535 0.171577 0.175 -0.00342319 
1084.7 -1.12036e-05 -9.66518e-05 -0.00865315 0.873262 0.171375 0.17503 -0.00365472 
1078.16 -1.87405e-05 0.000276483 -0.00598899 0.873195 0.171331 0.175021 -0.00368968 
718.972 0.00249052 -0.00235632 -0.000219527 0.966794 0.296676 0.302518 -0.00584193 
1071.37 2.43796e-05 -0.000198834 -0.00396354 0.875684 0.171296 0.17501 -0.00371319 
1071.95 0.00180895 0.00144479 -0.00216923 0.875513 0.171184 0.175016 -0.00383219 
1071.89 -0.0019525 0.00161694 -0.000902674 0.875576 0.171225 0.175015 -0.0037897 
723.043 0.00273091 0.00351367 0.00107351 0.967421 0.296516 0.302512 -0.0059963 
1068.99 0.00063665 0.000741154 -0.00279206 0.875474 0.171158 0.175005 -0.00384694 
1084.39 0.00013398 -0.000673859 -0.00858114 0.876751 0.17107 0.175027 -0.00395719 
1075.24 -0.000161638 -9.21737e-05 -0.0050268 0.879935 0.171212 0.17502 -0.0038076 
714.121 -0.00283777 0.00310851 0.00153319 0.967707 0.296553 0.302517 -0.00596352 
1072.64 -0.000284866 0.00265183 -0.0016228 0.877517 0.171185 0.175015 -0.00383075 
1069.51 6.57105e-05 2.57313e-05 -0.00341427 0.877394 0.171104 0.175006 -0.00390179 
1071.08 0.000390199 -0.00220984 -0.00190755 0.879623 0.171021 0.175011 -0.00398979 
1069.09 -0.000289556 0.00167834 -0.00282381 0.877444 0.171136 0.175007 -0.00387091 
1076.02 3.58603e-05 -0.000110521 -0.00492287 0.877967 0.17102 0.175019 -0.00399905 
709.487 0.00191545 -0.0024487 0.00167309 0.970335 0.296258 0.302518 -0.00625977 
1068.19 -0.000549886 -5.88055e-05 -0.00322009 0.876616 0.171001 0.175007 -0.00400588 
453.258 0.000667933 0.000444837 0.00728371 0.986782 0.422663 0.429997 -0.0073342 
1071.39 0.00197979 6.70041e-05 -0.00212833 0.880989 0.17087 0.175011 -0.00414132 
722.439 -0.00261897 -0.00229233 0.000840204 0.968614 0.296365 0.302509 -0.00614388 
1069.97 -0.002327 0.00111476 -0.00111402 0.879136 0.170904 0.175014 -0.00411042 
720.865 0.0022992 0.00232569 5.19423e-06 0.972969 0.296037 0.302511 -0.00647419 
1069.61 0.000763105 -6.85913e-05 -0.00287718 0.881506 0.170846 0.175007 -0.00416166 
427.958 0.00056319 -0.00248051 -0.0139493 0.927647 0.404863 0.412291 -0.00742818 
225.644 -0.000943281 0.00453364 -0.00526671 0.997392 0.641694 0.650357 -0.00866256 
449.23 0.00080183 0.000730676 -0.0108599 0.942998 0.401207 0.409174 -0.00796639 
460.482 0.000345301 -0.00203797 -0.00736814 0.98107 0.409332 0.417797 -0.00846586 
462.808 0.000667192 -0.000870476 -0.0244596 0.927451 0.406921 0.414542 -0.00762104 
453.814 -0.00114664 -0.00201475 -0.00120238 0.994407 0.42157 0.430016 -0.00844554 
440.589 -0.00265944 -0.000598097 -0.00796098 0.997754 0.433108 0.441795 -0.00868644 
743.353 -0.00186661 0.00282819 0.0015956 0.963069 0.28257 0.288855 -0.00628447 
485.108 0.00145958 -0.000990205 0.00284332 0.987379 0.404154 0.411952 -0.00779777 
752.784 0.000439753 -0.000863884 0.00103979 0.965762 0.282391 0.288924 -0.006533 
787.107 0.000882182 -0.00116679 -0.000429408 0.956961 0.26607 0.272438 -0.00636743 
709.588 0.0024325 -0.00220024 0.00172997 0.969624 0.296348 0.302519 -0.00617086 
755.915 0.00234899 0.00326196 -0.00065119 0.965887 0.281949 0.288183 -0.00623424 
480.659 0.00154449 -0.00361467 -0.00670802 0.984585 0.39572 0.403995 -0.00827549 
1079.07 -4.99685e-05 8.51464e-05 -0.00620417 0.8733 0.1714 0.175018 -0.00361768 
1071.87 -0.00063657 -0.000219048 -0.00371201 0.87579 0.171366 0.175009 -0.00364281 
1072.51 0.00172395 0.00127274 -0.00134091 0.875629 0.17126 0.175012 -0.00375189 
724.332 0.00266561 0.00326521 0.000991027 0.967346 0.296612 0.30251 -0.00589746 
1070.27 -2.48738e-05 0.000693585 -0.0031006 0.875592 0.171235 0.175006 -0.00377067 
452.173 0.000498966 -0.000789491 0.000977239 0.999972 0.424551 0.433238 -0.00868674 
321.629 0.00360862 -0.00114747 -0.000906963 1 0.531265 0.540036 -0.0087708 
722.829 -0.0023732 -0.00203416 0.0011433 0.968152 0.296405 0.302511 -0.00610543 
454.992 0.000231153 -0.000179582 0.00672415 0.988224 0.422731 0.430003 -0.00727233 
2234.15 -9.38655e-05 -0.000835285 -0.000673919 0.289014 -0.0727636 -0.0800027 0.0072391 
1589.79 -5.07808e-05 9.6293e-05 -0.000779652 0.646359 0.0494447 0.0475078 0.00193697 
717.727 -0.00246954 0.00298771 0.000805832 0.967087 0.29661 0.302515 -0.00590462 
1086.08 2.74402e-05 -0.000357574 -0.008867 0.873588 0.171589 0.175037 -0.00344806 
1079.71 1.4593e-05 -3.91234e-05 -0.00595419 0.873514 0.171541 0.175027 -0.00348671 
719.219 0.00232953 -0.00270829 0.000893722 0.977614 0.296875 0.302524 -0.00564913 
1072.25 -0.000379158 -0.000402366 -0.0039517 0.886353 0.171473 0.175013 -0.00354027 
1073.94 0.00201782 0.000627599 -0.00218707 0.895468 0.171379 0.175019 -0.00364087 
1073.9 -0.00213669 0.00104414 -0.00125093 0.875904 0.17144 0.175021 -0.00358065 
727.124 0.00273315 0.00285861 0.000816338 0.966882 0.296822 0.302517 -0.00569504 