<VTKFile type="UnstructuredGrid">
<UnstructuredGrid>
<Piece NumberOfPoints="8501" NumberOfCells="47213">
<Points>
<DataArray type="Float64" Name="coordinates" NumberOfComponents="3" format="ascii">
0 2.63218 1.1645 
0.0757435 2.85296 1.10238 
0 2.50806 1.09027 
0 2.87665 1.15286 
0 2.76758 1.20919 
0.0775 2.85457 1.22768 
0.0808049 2.90665 1.2311 
0 2.66836 1.29499 
0.124038 2.83831 1.28447 
0.155528 2.70575 1.30113 
0.159035 2.69982 1.42792 
0.2825 2.8325 1.3025 
0.158585 2.96186 1.29959 
0.167414 3.21723 1.40507 
3.98 3.98 1.175 
5.3825 5.3825 1.175 
5.1275 5.1275 1.175 
5.1275 5.3825 1.175 
5.255 5.1275 1.175 
5.255 5.255 1.175 
5.3825 5.1275 1.3025 
5.3825 5.255 1.175 
4.8725 4.8725 1.175 
5.1275 5 1.175 
4.8725 5.1275 1.175 
4.6175 4.6175 1.175 
4.745 4.745 1.175 
4.6175 4.8725 1.175 
4.235 4.235 1.175 
4.3625 4.3625 1.175 
4.3625 4.6175 1.175 
4.1075 4.3625 1.175 
3.8525 4.1075 1.175 
3.5975 4.1075 1.175 
1.43 2.705 1.175 
1.3025 2.5775 1.0475 
1.175 2.705 1.175 
1.3025 2.705 1.175 
1.5575 2.8325 1.175 
0.152853 2.57899 1.17365 
0.153868 2.45699 1.04608 
0.0775 2.49357 1.0108 
0 2.7361 1.10192 
0 2.62815 1.0663 
0.063008 2.63544 1.01455 
0.078764 2.66601 1.10565 
0.0830548 2.79605 1.07555 
0.153937 2.57879 1.04707 
0.155 2.705 1.175 
0.282488 2.7038 1.17548 
0.409985 2.70288 1.17708 
0.537491 2.70386 1.17604 
0.665 2.705 1.175 
0.153098 3.08741 1.30163 
0 3.01025 1.20375 
0 3.14358 1.2207 
0.155 3.215 1.3025 
0.2825 3.0875 1.3025 
0.145059 2.83558 1.17001 
0.281713 2.82067 1.15802 
0.0646327 2.90049 1.03656 
0.066125 2.89294 1.07326 
0.083809 2.90796 1.09574 
0.0775 3.02743 1.11854 
0.152845 2.95956 1.17295 
0.409967 2.82911 1.17813 
0.5375 2.8325 1.175 
0.282366 2.95788 1.176 
0.409941 2.9514 1.1834 
0 2.83339 1.03238 
0.0543977 2.772 1.03081 
0 2.56378 0.978757 
0.0775 2.88007 1.00964 
0 2.70258 0.996055 
0.0775 2.63163 0.954207 
0.14979 2.83826 1.04676 
0.134581 3.34937 1.29299 
0 3.27679 1.27901 
0.0775 3.39667 1.14399 
0 2.4121 0.980767 
0 2.50953 0.867183 
0 2.96865 1.07434 
0.0638977 3.03137 1.05514 
0 3.10542 1.10493 
0 3.36264 1.17795 
0.153005 3.5986 1.30256 
0 3.08561 1.37338 
0 2.86303 1.34667 
0 2.63686 1.51719 
5.1275 4.8725 0.92 
5.1275 5 1.0475 
4.6175 5.1275 1.175 
5 5 1.0475 
5.1275 5.1275 1.0475 
5.255 5.1275 1.0475 
5.3825 5.255 1.0475 
4.8725 5.3825 1.175 
5.255 5.255 1.0475 
5.3825 5.3825 1.0475 
5.1275 5.1275 0.92 
5.1275 5.255 1.0475 
5.255 5.3825 1.0475 
5.1275 5.6375 1.175 
5 5.255 1.0475 
5.1275 5.3825 1.0475 
5.255 5.51 1.0475 
4.8725 5.6375 1.175 
1.8125 3.0875 1.175 
2.195 3.215 1.175 
0.92 2.705 1.175 
0.7925 2.705 1.175 
1.0475 2.705 1.175 
0.161583 2.83079 1.43335 
0.178205 2.97343 1.43328 
0.194134 3.08931 1.43894 
0.664924 2.70507 1.41238 
0.537424 2.83238 1.29591 
0.408201 2.70816 1.42249 
0.7925 2.8325 1.3025 
0.5375 3.0875 1.3025 
1.175 2.705 1.43 
1.0475 2.8325 1.3025 
1.3025 2.8325 1.3025 
0.374438 2.69943 1.67089 
1.94 2.96 1.175 
1.685 2.96 1.175 
1.5575 2.8325 1.3025 
1.43 2.705 1.43 
1.8125 2.96 1.175 
0.270364 3.34321 1.2894 
0.161637 3.46856 1.29956 
0.7925 3.0875 1.3025 
1.0475 3.0875 1.3025 
0.409617 2.96662 1.41821 
0.66374 3.2156 1.40383 
0.537168 3.34275 1.29606 
0.7925 3.3425 1.3025 
0.381653 3.244 1.39435 
0 3.50062 1.30924 
0.165077 3.72078 1.43379 
0.155 3.3425 1.43 
0.173815 3.46126 1.43687 
0.275665 3.34643 1.53019 
0.158116 3.59709 1.43275 
0.278429 3.59915 1.5375 
0 3.27357 1.52875 
0 3.75817 1.42893 
3.0875 3.5975 1.175 
3.47 3.725 1.175 
3.215 3.725 1.175 
3.3425 3.725 1.175 
3.3425 3.8525 1.175 
1.3025 3.0875 1.3025 
1.5575 3.0875 1.3025 
1.175 3.215 1.43 
1.0475 3.3425 1.3025 
1.3025 3.3425 1.3025 
0.405187 3.21524 1.67922 
0.155 3.215 1.685 
3.725 4.235 1.175 
0.161485 3.85126 1.43997 
0.167936 3.97763 1.42978 
2.96 3.47 1.175 
2.5775 3.3425 1.3025 
3.215 3.47 1.175 
3.0875 3.47 1.175 
3.215 3.5975 1.175 
3.3425 3.5975 1.3025 
3.47 3.8525 1.175 
3.47 3.98 1.175 
3.725 3.98 1.175 
3.5975 3.98 1.175 
3.8525 3.98 1.175 
3.725 4.1075 1.175 
4.49 4.49 1.175 
3.5975 4.1075 1.3025 
3.98 4.1075 1.175 
3.98 4.235 1.175 
3.8525 4.1075 1.3025 
3.8525 4.235 1.175 
4.1075 4.1075 1.3025 
4.1075 4.235 1.175 
3.725 4.235 1.43 
3.8525 4.3625 1.3025 
4.235 4.3625 1.175 
4.235 4.235 1.43 
4.235 4.49 1.175 
4.1075 4.3625 1.3025 
4.3625 4.3625 1.3025 
4.3625 4.49 1.175 
3.98 3.98 1.43 
4.745 5.255 1.175 
4.6175 5.3825 1.175 
5 5.765 1.175 
5 5.51 1.175 
5 5.6375 1.175 
5.255 5.3825 1.175 
5.255 5.51 1.175 
5.1275 5.51 1.175 
5.3825 5.3825 1.3025 
5.3825 5.51 1.175 
5 5 1.175 
5 5.1275 1.175 
5 5.255 1.175 
4.8725 5.255 1.175 
5 5.3825 1.175 
5.1275 5.1275 1.3025 
5.1275 5.255 1.175 
5.1275 5.3825 1.3025 
5.255 5.255 1.43 
4.49 4.6175 1.175 
4.49 4.745 1.175 
4.3625 4.6175 1.3025 
4.6175 4.6175 1.3025 
4.6175 4.745 1.175 
4.745 4.8725 1.175 
4.745 4.745 1.43 
4.745 5 1.175 
4.6175 4.8725 1.3025 
4.8725 4.8725 1.3025 
4.8725 5 1.175 
4.745 5.1275 1.175 
4.8725 5.1275 1.3025 
4.6175 5.1275 1.3025 
4.745 5.3825 1.175 
4.745 5.255 1.43 
4.745 5.51 1.175 
4.8725 5.3825 1.3025 
4.8725 5.51 1.175 
4.8725 5.6375 1.3025 
4.8725 5.1275 1.0475 
5 5.1275 1.0475 
4.745 4.745 1.0475 
4.8725 4.745 1.0475 
4.8725 4.8725 1.0475 
5 4.8725 1.0475 
4.745 5 1.0475 
4.8725 5 1.0475 
4.8725 4.8725 0.92 
4.49 5.255 1.175 
4.6175 5.255 1.175 
3.8525 4.3625 1.175 
3.98 4.3625 1.175 
3.98 4.49 1.175 
4.1075 4.49 1.175 
4.745 4.49 0.92 
4.745 4.8725 1.0475 
4.1075 4.6175 1.175 
4.235 4.6175 1.175 
4.6175 4.745 1.0475 
4.6175 4.6175 0.92 
4.49 4.49 1.0475 
4.6175 4.6175 1.0475 
4.235 4.745 1.175 
4.3625 4.745 1.175 
4.3625 4.8725 1.175 
4.49 4.8725 1.175 
4.49 5 1.175 
4.6175 5 1.175 
4.3625 5.1275 1.175 
4.49 5.1275 1.175 
4.49 4.745 1.0475 
4.6175 4.8725 1.0475 
4.3625 5.255 1.175 
4.1075 4.8725 1.175 
4.1075 5.1275 1.175 
4.235 5.255 1.175 
4.1075 4.1075 1.0475 
4.235 4.235 1.0475 
4.3625 4.235 1.0475 
4.3625 4.3625 1.0475 
4.49 4.3625 1.0475 
4.1075 4.1075 0.92 
4.1075 4.235 1.0475 
4.235 4.3625 1.0475 
4.3625 4.3625 0.92 
4.235 4.49 1.0475 
4.3625 4.49 1.0475 
4.3625 4.6175 1.0475 
4.49 4.6175 1.0475 
3.3425 4.1075 1.175 
3.47 4.1075 1.175 
3.47 4.235 1.175 
3.5975 4.235 1.175 
3.5975 4.3625 1.175 
3.725 4.3625 1.175 
3.98 4.235 1.0475 
4.1075 4.3625 1.0475 
3.725 4.49 1.175 
3.8525 4.49 1.175 
3.8525 4.6175 1.175 
3.725 4.6175 1.175 
3.5975 4.6175 1.175 
3.725 4.745 1.175 
3.8525 4.8725 1.175 
3.47 3.725 1.0475 
3.5975 3.8525 1.0475 
3.725 3.8525 1.0475 
3.725 3.98 1.0475 
3.8525 3.98 1.0475 
3.8525 4.1075 1.0475 
3.98 4.1075 1.0475 
3.8525 4.1075 0.92 
3.725 4.235 1.0475 
3.8525 4.235 1.0475 
3.5975 3.8525 0.92 
3.47 3.98 1.0475 
3.5975 3.98 1.0475 
3.5975 4.1075 1.0475 
3.725 4.1075 1.0475 
2.0675 3.3425 1.175 
2.3225 3.3425 1.175 
2.45 3.3425 1.175 
2.45 3.47 1.175 
2.5775 3.47 1.175 
2.705 3.47 1.175 
2.8325 3.47 1.175 
2.8325 3.3425 1.0475 
2.96 3.3425 1.0475 
2.8325 3.5975 1.175 
3.47 3.47 0.92 
3.47 3.8525 1.0475 
3.3425 3.725 1.0475 
3.215 3.3425 0.92 
3.3425 3.3425 0.7925 
3.3425 3.47 0.92 
3.3425 3.5975 0.92 
3.215 3.47 1.0475 
3.3425 3.5975 1.0475 
3.0875 3.3425 0.92 
3.0875 3.47 1.0475 
3.215 3.5975 1.0475 
3.0875 3.8525 1.175 
2.3225 3.5975 1.175 
2.5775 3.5975 1.175 
2.705 3.5975 1.175 
2.96 3.47 1.0475 
3.0875 3.5975 1.0475 
2.705 3.725 1.175 
2.8325 3.8525 1.175 
3.3425 3.98 1.0475 
3.3425 3.8525 0.92 
3.215 3.725 1.0475 
3.3425 3.8525 1.0475 
3.3425 4.235 1.175 
3.0875 4.1075 1.175 
3.215 4.235 1.175 
3.3425 4.3625 1.175 
2.5775 3.8525 1.175 
2.8325 4.1075 1.175 
3.215 3.98 1.0475 
3.0875 4.3625 1.175 
1.3025 2.8325 1.175 
1.43 2.8325 1.175 
1.43 2.96 1.175 
1.5575 2.96 1.175 
0.664991 2.83134 1.17604 
0.7925 2.8325 1.175 
0.537409 2.95367 1.18062 
0.664967 2.9557 1.17905 
1.0475 2.5775 1.0475 
1.175 2.5775 1.0475 
0.92 2.8325 1.175 
1.0475 2.8325 1.175 
1.175 2.8325 1.175 
0.792469 2.95771 1.1771 
0.92 2.96 1.175 
1.0475 2.96 1.175 
1.175 2.96 1.175 
1.3025 2.96 1.175 
1.0475 3.0875 1.175 
1.175 3.0875 1.175 
1.3025 3.0875 1.175 
1.175 3.215 1.175 
1.43 3.0875 1.175 
1.5575 3.0875 1.175 
1.685 3.0875 1.175 
1.3025 3.215 1.175 
1.43 3.215 1.175 
1.5575 3.215 1.175 
1.685 3.215 1.175 
0.157577 3.72581 1.30223 
0.280659 3.59751 1.30061 
0.5375 3.5975 1.3025 
1.43 2.705 1.0475 
1.3025 2.5775 0.92 
1.175 2.705 1.0475 
1.3025 2.705 1.0475 
1.5575 2.8325 1.0475 
1.685 2.8325 1.0475 
1.8125 2.8325 0.92 
1.685 2.96 1.0475 
1.8125 2.96 1.0475 
2.0675 3.0875 1.0475 
2.3225 3.215 1.0475 
1.5575 3.3425 1.175 
1.8125 3.0875 1.0475 
1.94 3.0875 1.0475 
1.8125 3.3425 1.175 
2.195 3.215 1.0475 
2.0675 3.0875 0.92 
1.94 3.215 1.0475 
2.0675 3.215 1.0475 
2.0675 3.5975 1.175 
1.3025 3.3425 1.175 
1.43 3.3425 1.175 
1.43 3.47 1.175 
1.8125 3.5975 1.175 
2.195 3.725 1.175 
2.3225 3.8525 1.175 
2.0675 3.8525 1.175 
0.282201 2.57788 1.04734 
0.409987 2.57748 1.04735 
0.155 2.45 0.92 
0.2825 2.5775 0.92 
0.154808 2.57885 0.919991 
0.145548 2.71 1.04448 
0.2825 2.705 1.0475 
0.5375 2.5775 1.0475 
0.665 2.5775 1.0475 
0.5375 2.5775 0.92 
0.409969 2.70472 1.04773 
0.5375 2.705 1.0475 
0.7925 2.5775 1.0475 
0.92 2.5775 1.0475 
0.7925 2.5775 0.92 
0.665 2.705 1.0475 
0.7925 2.705 1.0475 
1.04751 2.45112 0.918899 
1.0475 2.5775 0.92 
0.92 2.705 1.0475 
1.0475 2.705 1.0475 
0.151917 3.09187 1.16933 
0.281865 3.07598 1.1579 
0 2.92763 0.971774 
0.075442 3.00271 1.01322 
0 3.23981 1.14243 
0.0710551 3.14598 1.03026 
0.0726538 3.27553 1.05826 
0.0772758 3.17041 1.07454 
0.0775 3.29273 1.09056 
0.152183 3.09011 1.04695 
0.153098 3.21505 1.1758 
0.408875 3.0791 1.18306 
0.5375 3.0875 1.175 
0.2825 3.215 1.175 
0.409624 3.2129 1.17664 
0.665 3.0875 1.175 
0.7925 3.0875 1.175 
0.92 3.0875 1.175 
0.53645 3.20665 1.1831 
0.665 3.215 1.175 
0.7925 3.215 1.175 
0.92 3.215 1.175 
1.0475 3.215 1.175 
0.7925 3.3425 1.175 
0.92 3.3425 1.175 
1.0475 3.3425 1.175 
1.175 3.3425 1.175 
0.92 3.47 1.175 
1.0475 3.47 1.175 
1.175 3.47 1.175 
1.3025 3.47 1.175 
0.409928 2.45219 0.917969 
0.2825 2.45 0.92 
0.665 2.45 0.92 
0.5375 2.45 0.92 
0.155 2.45 0.7925 
0.280522 2.83438 1.04927 
0.409976 2.83174 1.04827 
[...]
<PointData>
<DataArray type="Float64" Name="proteus_solution" NumberOfComponents="8" format="ascii">
1130.96 0.00115681 0.000448756 -0.000570955 0.923167 0.1603 0.164512 -0.00421168 
1362.74 0.00031021 0.000173363 0.000119579 0.842862 0.100523 0.10238 -0.0018575 
1409.65 0.000382757 -9.31476e-05 -0.000580787 0.77581 0.0890596 0.0902734 -0.00121378 
1163.76 0.00162743 0.000190575 -0.00062665 0.920771 0.14871 0.152869 -0.00415944 
975.862 -0.000571465 0.000253383 -0.00184764 0.967384 0.203395 0.209201 -0.0058058 
924.419 0.00253763 -0.000156052 -0.00149757 0.994465 0.221578 0.227692 -0.0061133 
913.572 0.00100819 0.000830402 -0.0018534 0.988024 0.224898 0.231118 -0.00621991 
727.694 -0.000545236 0.000908814 -0.00208279 0.991879 0.287364 0.295011 -0.00764774 
758.485 -0.00355706 -1.76239e-05 -0.00184246 0.996897 0.277191 0.284484 -0.00729262 
719.641 -0.00207077 0.000153882 -0.000153034 0.992903 0.293756 0.301147 -0.00739123 
444.406 -0.00264365 0.000638157 -0.0044738 0.995571 0.41931 0.427939 -0.00862919 
716.872 -0.00155556 -0.000345072 -0.00109368 0.985633 0.295337 0.302511 -0.00717393 
725.335 -0.00194009 0.000565896 -0.00120507 0.992493 0.292203 0.29961 -0.00740699 
500.382 0.000954827 -0.000646129 -0.00509973 0.997548 0.396648 0.405085 -0.00843763 
1086.37 0.000138661 -0.000571383 -0.00882428 0.879534 0.172354 0.175033 -0.00267917 
1088.47 0.000870515 0.00172849 0.00179216 0.920888 0.17254 0.175003 -0.002463 
1088.56 -0.000544056 0.000393256 0.0014817 0.91893 0.172561 0.175 -0.00243972 
1087.5 0.000261648 0.0010177 0.00153972 0.918932 0.172562 0.175008 -0.00244567 
1072.76 0.000459911 0.000206833 -0.00361508 0.856817 0.172391 0.175013 -0.00262175 
1085.26 0.000148399 -0.00081844 -0.00765711 0.874972 0.172499 0.175016 -0.00251636 
719.219 -0.0025274 0.0028227 0.0013134 0.954997 0.297972 0.302523 -0.00455044 
1072.53 -0.000501829 -0.00101565 -0.00325307 0.876249 0.172349 0.175009 -0.00266048 
1088.62 0.00106898 0.0018092 0.00166996 0.920923 0.172565 0.175 -0.00243434 
1074.56 0.00190416 0.000102733 -0.00158857 0.870133 0.172359 0.175015 -0.00265595 
1087.43 0.000161887 0.000745736 0.00143131 0.918938 0.172566 0.175007 -0.0024407 
1088.46 -0.000494693 0.000580668 0.00164746 0.920357 0.172548 0.175002 -0.00245419 
1085.41 0.000303209 -0.000653527 -0.00763908 0.880114 0.172493 0.175016 -0.00252338 
1087.63 0.00020658 0.000916106 0.00154734 0.918934 0.172563 0.175008 -0.00244478 
1085.21 0.000146217 -0.000812556 -0.00767719 0.877872 0.172429 0.175016 -0.002587 
1088.41 0.000872703 0.0017122 0.00179274 0.920853 0.172516 0.175002 -0.00248662 
1087.67 -8.10902e-05 0.000850687 0.0010757 0.918899 0.172538 0.175004 -0.00246566 
1087.38 0.00025713 0.000999347 0.0015381 0.918867 0.172516 0.175008 -0.00249161 
1087.28 0.000176612 0.000719309 0.00140416 0.918804 0.172471 0.175007 -0.00253636 
1088.73 -0.00034061 0.000340771 0.00152394 0.918781 0.172455 0.175002 -0.002547 
1079.68 -0.000253688 -0.000490339 -0.00618244 0.876502 0.171526 0.17502 -0.00349396 
1589.46 9.03031e-05 -0.000104251 0.000544531 0.643962 0.0487745 0.0474945 0.00128003 
1083.5 -0.000158754 -0.000618935 -0.00771859 0.86695 0.171436 0.175001 -0.00356525 
1070.78 -0.00064776 -0.000394481 -0.00324157 0.869661 0.171365 0.175007 -0.00364176 
1087.27 -0.000101798 0.000998033 0.00156805 0.920908 0.171705 0.175006 -0.00330095 
1092.54 0.000554882 0.000780673 -0.000991013 0.92684 0.169238 0.17365 -0.00441232 
1597.74 -0.000330308 -0.000140552 -0.000612935 0.647741 0.04708 0.0460875 0.000992558 
1767.43 -6.49806e-05 -8.93503e-05 -0.000273604 0.546878 0.0135106 0.010801 0.0027096 
1361.5 -0.000331454 -8.36377e-05 -0.000424155 0.825947 0.100005 0.101923 -0.00191797 
1512.67 0.000154469 0.000204111 -0.000828906 0.724969 0.0661286 0.0663081 -0.000179476 
1750.86 0.000166639 0.00041167 4.03579e-05 0.567588 0.0169926 0.0145518 0.00244076 
1350.62 -0.000542934 0.000978214 -0.000697868 0.833103 0.103802 0.105657 -0.00185476 
1474.18 -0.000325677 0.000351562 -0.000485471 0.77354 0.0750322 0.0755505 -0.000518267 
1594.32 -0.000265772 0.000170737 -0.000403388 0.651061 0.047984 0.0470778 0.000906232 
1083 0.000469621 0.000145582 -0.000544909 0.917885 0.170441 0.175006 -0.00456557 
1074.77 -0.00115665 -0.000356402 -0.0017307 0.880322 0.171087 0.175489 -0.00440135 
1077.38 -6.93222e-05 -0.000329431 -0.00616177 0.87378 0.172934 0.177095 -0.00416154 
1067.78 0.000203572 0.000244087 -0.00284846 0.87652 0.171904 0.176046 -0.00414208 
1084.16 0.000208216 -0.000789246 -0.0068942 0.876413 0.17111 0.175005 -0.00389514 
717.015 -0.00241122 0.00068723 0.000267991 0.99907 0.294166 0.301644 -0.00747823 
988.171 -0.000879477 -0.000485847 -0.00112398 0.960998 0.197942 0.203777 -0.00583472 
939.528 -0.00190528 -0.000387809 -0.00256294 0.973585 0.214607 0.220722 -0.00611517 
721.762 -0.000269166 -0.000395441 -0.000422514 0.997219 0.295103 0.302505 -0.00740276 
716.539 -0.000695795 0.00107663 -0.000134595 0.989215 0.295325 0.30251 -0.00718537 
1103.3 0.000133007 -0.000126584 -0.000456448 0.92419 0.165599 0.170011 -0.00441199 
1148.19 0.000784656 0.000442965 -0.00046773 0.89418 0.15438 0.158028 -0.00364868 
1648.02 0.000595785 0.000146327 0.000180317 0.659479 0.037966 0.0365578 0.0014082 
1485.22 0.000868877 0.000461318 -0.000647076 0.804183 0.0727605 0.0732592 -0.000498677 
1390.66 -0.000691507 -0.00022724 -0.000677321 0.818888 0.0942072 0.0957464 -0.00153919 
1298.66 -0.000397674 0.00012754 0.000241155 0.875207 0.115997 0.118541 -0.00254383 
1090.36 -4.47938e-05 0.000133742 -0.00117467 0.921032 0.168387 0.172963 -0.00457574 
1059.93 -0.00063088 7.86626e-05 -0.00211044 0.885668 0.173759 0.178143 -0.00438416 
1086.23 -0.000356786 0.00101487 0.00142827 0.918147 0.171066 0.175002 -0.00393592 
1073.83 -0.00117879 3.65747e-05 -0.000931989 0.891741 0.171545 0.176011 -0.00446588 
1056.7 0.000172473 -0.000481465 -0.0051518 0.895003 0.179038 0.183412 -0.00437313 
1664.43 0.000546785 0.000282307 -3.47822e-05 0.638723 0.033986 0.0323775 0.00160858 
1674.34 0.000485975 -0.000145001 0.000521486 0.616533 0.032539 0.0308016 0.00173737 
1922.27 -0.000143447 1.33489e-05 -0.000309191 0.441649 -0.0169513 -0.0212395 0.00428813 
1773.84 -8.6243e-05 0.000371358 0.000374375 0.545662 0.012433 0.00963344 0.00279959 
1836.16 -0.000110247 4.71036e-05 -0.000231784 0.498407 -0.000439894 -0.00394242 0.00350252 
2052.03 -0.000271594 -6.18818e-05 -0.000208405 0.351381 -0.0403201 -0.045791 0.0054709 
1592.51 -1.21225e-06 3.19972e-05 -0.000148925 0.648704 0.047659 0.0467576 0.000901438 
743.658 -0.002257 -0.000263009 -0.000502297 0.995518 0.285765 0.293006 -0.00724132 
767.418 0.00120387 -0.00126461 -0.00216191 0.981752 0.271657 0.279034 -0.00737704 
1201.06 -0.00081817 -0.000362027 0.000763699 0.926951 0.140439 0.143994 -0.00355438 
1907.59 0.00064475 0.000264518 -0.000194842 0.452242 -0.0149065 -0.019231 0.00432441 
2539.8 0.000261469 -0.00012504 9.99754e-05 0.15719 -0.123559 -0.132815 0.00925569 
1472.62 -0.000185398 9.54708e-06 -0.000495441 0.769898 0.0735962 0.0743537 -0.000757495 
1563.27 0.000677803 -0.00055694 0.000245343 0.725493 0.0555691 0.0551373 0.00043181 
1348.13 0.000156712 -6.3172e-05 -0.000431299 0.827775 0.102833 0.104939 -0.00210617 
1070.61 -0.00236891 -0.000790128 -0.00160833 0.921307 0.172962 0.177968 -0.00500636 
717.99 -0.000799155 -0.00123028 0.000275288 0.989227 0.295256 0.302568 -0.00731182 
528.704 -0.00706112 0.00312185 -0.0083785 0.986114 0.364881 0.373423 -0.00854213 
596.626 -0.00145863 -0.000414331 -0.00513592 0.988467 0.338377 0.346694 -0.00831641 
325.513 -0.00696221 -0.00208071 -0.00945636 0.992343 0.508336 0.517219 -0.00888337 
2234.1 -9.32003e-05 -0.00054207 -0.000913911 0.287574 -0.0726644 -0.080003 0.00733863 
1588.28 8.7382e-05 -0.000210014 0.000398257 0.648382 0.0495008 0.0474964 0.00200438 
1088.84 -0.000377221 0.000347565 0.00154069 0.918917 0.172551 0.175002 -0.00245051 
1590.71 -0.000133403 0.000615669 -0.00131134 0.646598 0.0495352 0.0475134 0.00202176 
1590.74 -0.000121303 -0.000354005 0.000587026 0.646614 0.0495348 0.0474941 0.00204071 
1588.14 5.43386e-05 -0.00013278 -0.000519015 0.646593 0.0495267 0.0475051 0.00202154 
1588.04 8.15731e-05 0.00026695 -7.27197e-05 0.64853 0.0495522 0.0475008 0.00205143 
1088.75 0.00115295 0.00163818 0.00164745 0.918918 0.172552 0.175002 -0.00244967 
1590.78 -5.81952e-05 0.0002049 -0.00105669 0.646252 0.0495766 0.0475104 0.00206616 
1590.79 -4.35809e-05 -2.45971e-05 0.000644526 0.648543 0.0495567 0.0474936 0.00206312 
2233.67 -3.02255e-05 -0.000666724 -0.000643282 0.28858 -0.07264 -0.0800016 0.00736162 
1588.56 -0.000118867 0.000117866 -0.000331531 0.646747 0.0495806 0.0475032 0.0020774 
1587.88 2.28103e-05 0.000109286 -0.000360137 0.646182 0.0495837 0.0475037 0.00207993 
1088.74 -0.000658606 0.000543496 0.00146207 0.912596 0.172554 0.175002 -0.00244818 
1590.15 9.37433e-05 -6.54639e-05 -0.000952382 0.64667 0.0495706 0.0475096 0.002061 
1590.84 -5.34495e-05 6.78385e-06 0.000243319 0.646729 0.0495782 0.0474976 0.00208059 
1589.7 -2.53345e-05 6.87488e-05 -0.000829944 0.644469 0.0495771 0.0475085 0.00206858 
1087.51 7.09139e-05 0.00076918 0.00124925 0.918903 0.172541 0.175006 -0.00246454 
1087.74 -3.69901e-05 0.000850932 0.00149317 0.917905 0.171837 0.175007 -0.00316946 
1085.7 0.000102897 -0.000819416 -0.00766611 0.877094 0.171916 0.175018 -0.00310233 
1078.81 4.54891e-05 -0.000312093 -0.00556415 0.867923 0.171249 0.17502 -0.00377066 
1072.61 -0.000217446 -0.000474665 -0.00324189 0.873077 0.171058 0.175008 -0.00395033 
1069.94 -0.000362625 0.000380711 -0.00340903 0.869742 0.171219 0.175008 -0.00378925 
440.642 0.00219691 -0.00342878 -0.0108399 0.984878 0.424773 0.433376 -0.00860325 
442.543 0.00354709 -0.000642568 -0.0114263 0.992462 0.42472 0.433317 -0.00859774 
442.614 0.00204362 -0.00229178 -0.00798103 0.995815 0.430412 0.43896 -0.0085483 
490.916 0.00210792 0.000453414 0.00339883 0.98204 0.404748 0.412381 -0.00763288 
735.54 0.0010698 4.25884e-05 0.000108162 0.969575 0.289411 0.295915 -0.0065039 
465.809 8.55451e-05 0.00122976 -0.00182455 0.988559 0.414279 0.422514 -0.00823487 
724.608 -0.00247106 -0.00143181 0.000103573 0.971754 0.296271 0.302514 -0.00624324 
720.045 0.000135999 0.00092768 0.00216608 0.974281 0.29589 0.302508 -0.0066177 
456.409 0.000162643 -0.000609396 0.00620471 0.984391 0.422874 0.430004 -0.00712998 
716.877 0.00207239 -0.00195279 0.00153206 0.968003 0.296556 0.302519 -0.00596312 
726.762 -0.0028527 -0.00252015 0.000761921 0.967066 0.2968 0.302513 -0.0057129 
214.381 -0.00442678 -0.00111445 -0.00015896 0.999156 0.662321 0.670934 -0.00861246 
1086.91 -4.32168e-06 -0.000612138 -0.00900364 0.878616 0.171747 0.175022 -0.00327491 
1080.38 1.31386e-06 -0.000175026 -0.00592318 0.867531 0.171678 0.175024 -0.00334632 
720.564 0.00223888 -0.00223834 0.00114267 0.966955 0.296944 0.302518 -0.00557432 
413.173 0.00121751 -0.00111061 -0.0124544 0.940819 0.423023 0.430035 -0.00701179 
1074.71 -0.00246995 0.000317708 -0.00130126 0.882982 0.171589 0.175015 -0.00342578 
747.876 -0.0021472 -0.000605233 0.000957669 0.983775 0.282462 0.289404 -0.006942 
727.532 -0.00232342 -3.78665e-05 -0.000947049 0.990423 0.292309 0.299569 -0.00725978 
713.463 -0.00234724 0.00178724 0.00231399 0.973225 0.296229 0.302515 -0.00628626 
725.264 0.00205995 0.00230633 0.000905158 0.968319 0.296589 0.302509 -0.00592067 
459.882 0.00206644 -0.000422951 -0.00584856 0.984937 0.410026 0.418228 -0.00820291 
506.462 0.00111709 -0.00124014 0.00276195 0.982601 0.396304 0.403841 -0.00753634 
737.844 3.45132e-05 -0.00178152 -0.000220364 0.966106 0.289607 0.296066 -0.00645862 
725.081 -0.00168168 -0.00196728 0.000184359 0.970911 0.296314 0.302517 -0.00620283 
502.053 0.00148776 0.0016313 -0.00448459 0.983883 0.386257 0.394374 -0.00811789 
675.9 0.000431396 -0.000757448 -0.00521771 0.970129 0.301439 0.309276 -0.00783722 
450.78 0.00164878 0.00198966 -0.00295913 0.999933 0.425227 0.43381 -0.00858294 
457.118 -0.000189609 0.00089494 0.00120596 0.99986 0.421483 0.430017 -0.00853372 
448.008 0.00430539 -0.000985044 -0.00330063 0.998865 0.428326 0.436894 -0.00856803 
334.081 -0.00063928 0.00380025 -0.000317528 0.999998 0.521621 0.530209 -0.0085888 
454.068 0.00447683 0.00227619 -0.00187859 0.999749 0.42426 0.432771 -0.00851008 
321.873 0.000801955 0.000420275 -0.00340556 1 0.52891 0.537533 -0.00862238 
322.715 -0.00601704 0.000566534 -0.00685772 0.999652 0.519954 0.528801 -0.00884648 
446.36 -0.00182069 -0.000946012 -0.00579904 0.998736 0.420236 0.428966 -0.00872922 
1088.86 -0.000603312 0.000500942 0.00146951 0.918531 0.172278 0.175001 -0.00272311 
1080.46 -3.89931e-05 -0.000483859 -0.00605315 0.88284 0.172242 0.175023 -0.00278066 
1085.69 0.000115512 -0.000569901 -0.00770001 0.874581 0.172242 0.175006 -0.0027641 
1072.95 -0.000362351 -0.000287067 -0.00352623 0.926259 0.1721 0.17501 -0.00290969 
1088.75 0.000973172 0.00182665 0.00162944 0.918679 0.172383 0.175002 -0.00261864 
718.229 -0.00274869 0.00278708 0.00142305 0.967263 0.29681 0.302518 -0.00570806 
728.365 0.00225543 0.00236438 0.000434492 0.966989 0.297003 0.302514 -0.00551151 
456.438 -0.000254605 -0.00057402 0.00776351 0.988755 0.422929 0.430002 -0.00707252 
711.799 0.00255709 -0.00118491 0.00154837 0.970377 0.296535 0.30252 -0.00598563 
724.712 -0.00362394 -0.00228102 0.000804357 0.967636 0.296813 0.302512 -0.00569935 
209.154 -0.00355034 7.65759e-05 -0.0016341 1 0.670761 0.679267 -0.00850615 
196.883 -0.000399955 0.000890205 -0.00604952 1 0.676286 0.685029 -0.00874339 
1085.52 0.000417572 -0.000887654 -0.00768596 0.874834 0.172408 0.175004 -0.00259589 
436.069 0.0033733 0.000310556 -0.00226346 0.999554 0.431379 0.439986 -0.00860658 
454.543 0.00331103 -0.000441426 -0.0046205 0.999893 0.421212 0.42979 -0.00857796 
1086.7 0.000162376 -0.000541238 -0.00855926 0.868043 0.172152 0.175034 -0.0028817 
720.321 0.00260164 -0.00256992 -9.16279e-05 0.966127 0.297425 0.302521 -0.00509617 
1080.61 0.000100745 -0.00019861 -0.00611506 0.876882 0.17216 0.175023 -0.00286242 
1074.95 0.00172011 0.000200116 -0.00124952 0.878175 0.172029 0.175014 -0.00298544 
1073.26 5.9787e-05 0.000217866 -0.00340846 0.894801 0.172073 0.17501 -0.00293699 
719.405 -0.00258755 0.00258719 0.000296814 0.972248 0.297635 0.30252 -0.00488506 
1075.15 0.000144864 -0.00206996 -0.00155429 0.873757 0.172184 0.175014 -0.0028298 
1086.56 0.00015877 -0.000550744 -0.00860953 0.848511 0.172347 0.175035 -0.00268747 
1080.39 9.08968e-05 -0.000197215 -0.00595874 0.87042 0.172364 0.175027 -0.0026634 
1074.8 0.00205267 0.000100263 -0.00213637 0.866371 0.172237 0.175017 -0.00277928 
1074.54 -0.00212945 0.000454181 -0.00116856 0.883952 0.17223 0.175018 -0.00278811 
1072.8 0.000824655 0.000117728 -0.00330359 0.877175 0.172277 0.175011 -0.0027344 
1086.2 8.55001e-05 -0.000504726 -0.00793314 0.877416 0.172436 0.175036 -0.00260046 
727.519 0.00259628 0.00277862 0.00106335 0.967486 0.29784 0.302515 -0.00467473 
1074.67 -0.000312233 0.00184846 -0.00105228 0.906271 0.172236 0.175018 -0.0027825 
1080.16 9.83917e-08 -0.000512824 -0.00584297 0.874815 0.172396 0.175029 -0.00263296 
719.251 -0.00249399 0.00259714 0.00188333 0.967484 0.297837 0.302525 -0.00468834 
1072.46 -0.000217447 -0.00101371 -0.00339499 0.877195 0.17229 0.17501 -0.00272063 
727.443 0.00254207 0.00271589 0.000931127 0.972059 0.297838 0.302513 -0.00467543 
1072.32 0.000175867 0.000287783 -0.00365826 0.893843 0.172284 0.175012 -0.00272855 
457.208 -0.000150458 4.0817e-05 0.00684843 0.987997 0.424212 0.430011 -0.00579914 
727.524 -0.00264749 -0.00256785 0.000794314 0.967516 0.297891 0.302518 -0.0046271 
1072.75 -0.000688228 -0.000732852 -0.00337852 0.87724 0.172319 0.175011 -0.00269187 
456.899 -0.000982105 -0.000864058 0.00782804 0.988651 0.424221 0.430011 -0.00579045 
1080.48 7.34454e-05 -0.000147823 -0.00620323 0.874866 0.172429 0.175025 -0.00259547 
719.194 0.0026807 -0.00247469 0.000944098 0.967511 0.297882 0.302524 -0.00464209 
727.12 -0.00298135 -0.00284655 0.00115346 0.967514 0.297887 0.302518 -0.00463034 
1074.84 -0.00198686 0.000292322 -0.00176947 0.87723 0.172313 0.175019 -0.00270581 
438.218 0.000102942 -0.000121778 -0.0275693 0.939655 0.424194 0.43006 -0.00586594 
1085.66 0.000394235 -0.000874058 -0.00768431 0.874938 0.172477 0.175004 -0.00252685 
1087.85 0.000361735 0.00079982 0.00131089 0.918888 0.172531 0.175006 -0.00247528 
1080.37 -8.98899e-05 -0.000408369 -0.00590309 0.881123 0.172463 0.175028 -0.00256547 
1086.58 0.000118811 -0.000531145 -0.00859109 0.878892 0.172463 0.175037 -0.00257412 
1075.07 -0.000259496 0.00196802 -0.00151003 0.883222 0.172353 0.17502 -0.00266728 
1072.8 -0.000688047 -0.000741004 -0.00337048 0.877298 0.172358 0.175011 -0.0026532 
1080.6 9.29436e-05 -0.000170509 -0.00612939 0.872369 0.172444 0.175023 -0.00257896 
1074.88 0.00170461 0.000249015 -0.00122832 0.883191 0.172332 0.175015 -0.00268294 
727.141 -0.00298766 -0.00284306 0.00116054 0.978488 0.297921 0.302519 -0.00459782 
1074.93 -0.00198539 0.000290491 -0.00177578 0.895123 0.172289 0.175019 -0.00273082 
1086.49 0.000137102 -0.000554759 -0.00884264 0.860472 0.172483 0.175032 -0.00254896 
1074.8 -0.000346459 0.00183221 -0.000992815 0.877304 0.172362 0.175017 -0.002655 
1080.32 8.68923e-07 -0.000516688 -0.00582745 0.87493 0.172472 0.175028 -0.00255601 
1072.61 -0.000244313 -0.00100973 -0.00335669 0.8773 0.172359 0.17501 -0.00265029 
1075.11 7.00348e-05 -0.00250866 -0.00249332 0.877285 0.172349 0.175017 -0.00266835 
727.5 0.00256876 0.0026958 0.000936481 0.95977 0.297971 0.302513 -0.00454123 
1072.43 0.000179053 0.000286682 -0.00367323 0.877315 0.172369 0.175012 -0.00264299 
719.257 0.00270621 -0.00244772 0.000932552 0.967536 0.297924 0.302523 -0.00459954 
456.917 -0.000946852 -0.000878138 0.007839 0.984818 0.42432 0.430012 -0.00569215 
1075.07 -0.000140061 0.00163983 -0.0016171 0.877265 0.172336 0.175017 -0.00268149 
1080.52 -7.10122e-05 -0.000470497 -0.00604304 0.874909 0.172458 0.175024 -0.00256597 
719.421 -0.0026055 0.00260813 0.000294394 0.967521 0.2979 0.302521 -0.00462085 
727.13 0.0029194 0.00296868 0.00139693 0.967529 0.297913 0.302518 -0.00460497 
1072.61 0.000336319 0.000696614 -0.00321945 0.877297 0.172357 0.17501 -0.00265301 
1072.84 -0.000292686 -0.000624165 -0.00373263 0.877322 0.172374 0.175013 -0.00263952 
456.934 0.000760746 0.000771046 0.00784839 0.988011 0.424269 0.430012 -0.00574281 
1080.53 9.29659e-05 -0.000190115 -0.00591798 0.874928 0.172471 0.175028 -0.00255729 
719.316 0.0025023 -0.00265767 0.000963736 0.967534 0.297922 0.302524 -0.00460208 
727.556 -0.00269292 -0.00251041 0.000857154 0.967546 0.297942 0.302513 -0.00457118 
1074.7 -0.0021475 0.0004585 -0.00115997 0.877292 0.172354 0.175018 -0.00266433 
1072.95 0.000776295 0.00010823 -0.00328915 0.877312 0.172367 0.175011 -0.00264369 
719.332 -0.0025174 0.00258108 0.00192151 0.967543 0.297936 0.302525 -0.00458879 
727.608 0.002613 0.00272315 0.00103491 0.967538 0.297928 0.302515 -0.00458754 
1073.21 0.000213456 -0.00061343 -0.00367408 0.877287 0.172351 0.17501 -0.00265988 
457.254 -8.19177e-05 -2.1957e-05 0.00684505 0.988012 0.424273 0.430011 -0.00573769 
1080.69 2.92514e-05 -9.67851e-05 -0.00608314 0.874878 0.172437 0.175024 -0.0025862 
727.598 -0.00267142 -0.00256014 0.000817468 0.967535 0.297924 0.302516 -0.00459228 
1074.96 -0.0019156 0.000625681 -0.000868837 0.877256 0.17233 0.175018 -0.00268794 
719.333 -0.0027992 0.00257082 0.00131856 0.967511 0.297882 0.302523 -0.00464058 
1591.22 0.000145312 -0.000147697 0.000407839 0.646676 0.0495614 0.0474958 0.00206561 
1588.57 2.5363e-05 -6.65427e-05 -3.92808e-05 0.646657 0.0495536 0.0475007 0.00205292 
1591.04 -0.000164237 6.21491e-05 -0.00106087 0.649493 0.049604 0.0475105 0.00209351 
1588.43 9.78275e-05 0.00029457 -0.000269476 0.645803 0.0495707 0.0475027 0.00206796 
1590.92 -6.85817e-05 5.55991e-05 0.000750669 0.646692 0.0495615 0.0474924 0.00206912 
1588.4 5.52755e-05 -0.000284356 0.000448316 0.646595 0.0495274 0.047496 0.00203146 
1589.94 5.59903e-07 7.74023e-05 -0.000813035 0.646651 0.0495684 0.0475082 0.00206025 
1589.1 0.000178838 -0.000275965 -0.000113214 0.646612 0.0495531 0.0475016 0.0020515 