<VTKFile type="UnstructuredGrid">
<UnstructuredGrid>
<Piece NumberOfPoints="8510" NumberOfCells="47292">
<Points>
<DataArray type="Float64" Name="coordinates" NumberOfComponents="3" format="ascii">
10 7.37277 1.16702 
10 7.35983 1.31024 
9.83979 7.2972 1.42757 
5.51 5.765 1.175 
5.6375 5.765 1.175 
5.6375 5.6375 1.175 
9.845 7.295 1.3025 
10 7.26171 1.10506 
10 7.23243 1.20901 
9.72304 7.16719 1.29683 
9.86206 7.16331 1.29278 
10 7.12485 1.15524 
9.92547 7.08703 1.24263 
9.92464 7.13481 1.22671 
9.85282 7.28934 1.17713 
9.91222 7.09579 1.10278 
9.93506 7.15936 1.09477 
9.9225 7.1034 1.04014 
9.93194 7.10661 1.07551 
9.9225 7.21653 1.07446 
9.71833 7.28958 1.17688 
9.59005 7.29172 1.17794 
10 7.29819 0.997747 
9.857 7.28502 1.04566 
10 7.16359 1.03602 
9.9225 7.2309 1.04014 
9.71939 6.91246 1.30059 
9.85639 6.91118 1.29749 
9.845 7.04 1.3025 
10 6.84479 1.21285 
10 6.97523 1.19703 
10 7.1917 0.918047 
10 7.02782 1.07287 
9.08117 7.29499 1.41275 
9.4625 6.9125 1.3025 
9.2075 7.1675 1.3025 
9.4625 7.1675 1.3025 
9.59 7.295 1.43 
9.33502 7.295 1.40533 
9.59091 7.04003 1.41809 
9.80866 6.6394 1.43591 
10 6.88807 1.35822 
9.845 6.9125 1.43 
9.8332 7.03242 1.42475 
10 7.13247 1.34996 
9.83239 7.1656 1.43773 
9.845 6.785 1.43 
9.65902 7.30431 1.66153 
9.59 6.785 1.685 
5.765 6.02 1.175 
5.6375 5.8925 1.3025 
5.765 5.8925 1.175 
5.8925 6.02 1.175 
5.8925 5.8925 1.3025 
5.51 5.51 1.175 
5.255 5.51 1.43 
5.3825 5.51 1.175 
5.51 5.765 1.43 
5.3825 5.6375 1.3025 
5.51 5.6375 1.175 
5.255 5.255 1.43 
5.3825 5.3825 1.3025 
5.255 5.255 1.685 
5.3825 5.1275 1.3025 
5.765 5.765 1.43 
5.6375 5.6375 1.3025 
5.6375 5.3825 1.3025 
5.3825 5.3825 1.175 
5.255 5.1275 1.175 
5.3825 5.1275 1.175 
5.765 5.765 1.175 
5.8925 5.8925 1.175 
6.02 6.02 1.175 
5.8925 5.6375 1.3025 
5.3825 5.255 1.175 
5.51 5.3825 1.175 
5.6375 5.51 1.175 
5.765 5.765 1.0475 
5.8925 5.8925 1.0475 
5.765 5.6375 1.175 
5.3825 5.3825 0.92 
5.3825 5.3825 1.0475 
5.51 5.51 1.0475 
5.6375 5.6375 1.0475 
5.51 5.255 1.175 
5.6375 5.3825 1.175 
5.51 5 1.175 
5.3825 5 1.175 
5.51 5.3825 1.0475 
5.6375 5.1275 1.175 
5.51 5.1275 1.175 
5.765 5.51 1.175 
5.8925 5.6375 1.175 
5.765 5.255 1.175 
5.6375 5.255 1.175 
5.6375 5.51 1.0475 
5.765 5.6375 1.0475 
5.8925 5.3825 1.175 
5.765 5.3825 1.175 
6.1475 5.6375 1.3025 
6.1475 5.8925 1.3025 
6.275 5.765 1.43 
6.02 5.765 1.175 
5.8925 5.765 1.175 
6.1475 5.8925 1.175 
6.02 5.8925 1.175 
6.1475 6.02 1.175 
6.275 6.02 1.175 
6.4025 6.1475 1.175 
6.4025 6.1475 1.3025 
6.4025 5.8925 1.3025 
7.55 6.785 1.175 
8.9525 7.1675 1.3025 
9.08 7.295 1.175 
9.2075 7.295 1.175 
9.335 7.295 1.175 
9.4625 7.29383 1.17606 
8.4425 6.9125 1.3025 
8.6975 6.9125 1.3025 
8.9525 6.9125 1.3025 
9.20752 6.9125 1.29911 
9.08 7.1675 1.175 
9.08 7.04 1.175 
9.2075 7.1675 1.175 
9.33528 6.78499 1.40494 
9.2075 6.6575 1.3025 
9.59321 6.7849 1.41548 
9.4625 6.6572 1.29572 
9.845 6.785 1.3025 
10 6.75675 1.1329 
10 6.71477 1.27569 
9.72401 6.65564 1.29474 
9.86188 6.65105 1.29394 
10 6.6351 1.17338 
9.2075 7.04 1.175 
9.335 7.1675 1.175 
9.335 7.04 1.175 
9.4625 7.1675 1.175 
9.4625 7.04 1.175 
9.59 7.1675 1.175 
9.59 7.04 1.175 
9.7175 7.1675 1.175 
9.86236 7.15449 1.15926 
9.7175 7.04 1.175 
9.84982 7.0358 1.17265 
10 6.88913 1.10041 
9.9225 6.83788 1.06982 
9.92532 6.97351 1.06833 
9.92493 6.9585 1.11783 
10 7.07311 0.972076 
9.90986 7.11081 1.00319 
9.86126 7.03292 1.04562 
9.9225 6.98858 1.01239 
10 7.3542 0.878908 
9.72184 7.1646 1.05009 
9.85959 7.14159 1.05261 
9.4625 7.1675 0.92 
9.59064 7.16879 1.04797 
9.4625 7.1675 1.0475 
9.5902 7.29323 1.04662 
9.71876 7.2947 1.04854 
9.84571 7.29446 0.9197 
9.71868 7.17849 0.937311 
9.86447 7.14539 0.941766 
9.79566 6.49851 1.4393 
9.2075 6.9125 1.175 
9.335 6.9125 1.175 
9.335 6.785 1.175 
9.4625 6.9125 1.175 
9.84647 6.78272 1.1745 
9.91203 6.71245 1.09499 
9.92873 6.72331 1.05688 
9.4625 6.785 1.175 
9.59 6.9125 1.175 
9.71757 6.78266 1.17596 
9.59022 6.78039 1.17847 
9.71849 6.89671 1.15258 
9.85056 6.89891 1.16691 
9.9225 6.84988 1.01665 
10 7.44479 0.70343 
10 7.20889 0.787277 
9.88998 7.14864 0.803363 
10 6.54883 1.10821 
9.9111 6.58153 1.12572 
9.93124 6.60625 1.09454 
10 7.03762 0.870367 
10 6.94103 0.976471 
9.92411 6.85826 0.964638 
10 6.66165 1.06465 
9.93422 6.70696 1.01655 
10 6.78878 1.0118 
9.84597 6.78343 1.04744 
9.93226 6.65819 0.992927 
9.92009 6.72337 0.967702 
9.4625 6.4025 1.3025 
9.83444 6.5186 1.30129 
9.72678 6.40134 1.27865 
10 6.49435 1.2906 
10 6.50019 1.03245 
9.90958 6.3352 1.12533 
7.9325 6.9125 1.3025 
8.1875 6.9125 1.3025 
8.315 7.04 1.43 
9.08035 7.03998 1.42221 
9.33737 7.03992 1.39681 
9.59 7.04 1.685 
9.35502 7.29482 1.66393 
9.34691 7.29923 2.15891 
8.57 7.04 1.43 
8.82501 7.04 1.42273 
6.6575 6.1475 1.3025 
6.9125 6.1475 1.3025 
6.785 6.275 1.43 
7.1675 6.4025 1.3025 
7.55 6.785 1.43 
7.295 6.53 1.43 
9.73361 6.15471 1.52943 
9.58385 6.53156 1.40529 
8.82511 6.785 1.67841 
9.08012 6.785 1.4287 
9.33662 6.52979 1.39918 
9.55647 6.53312 1.64754 
9.35834 6.78362 1.65622 
9.83901 6.14512 1.4385 
10 6.25325 1.39689 
9.845 6.275 1.43 
9.62721 6.28483 1.6461 
10 6.02187 1.43482 
9.83684 6.275 1.68739 
9.81656 6.53469 1.67092 
10 6.42256 1.56997 
10 6.66934 1.51995 
9.53961 7.03638 1.96613 
10 7.04271 1.70671 
9.57924 7.28771 1.95968 
9.53233 6.47819 1.92673 
9.49359 7.0101 2.37422 
9.34718 6.78211 2.15342 
9.57991 6.77816 1.95157 
6.02 6.02 1.43 
5.765 6.02 1.43 
6.275 6.02 1.43 
6.53 6.02 1.43 
5.6375 4.8725 1.3025 
5.51 4.745 1.43 
5.6375 5.1275 1.3025 
5.765 5.765 1.685 
6.02 5.765 1.43 
5.51 5.51 1.94 
5.51 5.51 1.43 
5.51 5.255 1.43 
5.51 5 1.43 
5.765 5.51 1.43 
5.8925 5.1275 1.3025 
5.765 5.255 1.43 
5.8925 5.3825 1.3025 
5.765 4.745 1.43 
5.8925 4.8725 1.3025 
6.275 5.765 1.685 
6.02 5.51 1.43 
5.255 4.8725 1.0475 
5.1275 4.8725 0.92 
5.1275 5 1.0475 
5.255 5.1275 1.0475 
5.3825 5.255 1.0475 
5.255 5.255 1.0475 
5.255 5 1.0475 
5.3825 5.1275 0.92 
5.3825 5.1275 1.0475 
5.51 4.745 1.175 
5.3825 5 1.0475 
5.51 5.1275 1.0475 
5.6375 4.8725 1.175 
5.51 4.8725 1.175 
5.8925 5.51 1.175 
5.8925 5.765 1.0475 
6.02 5.8925 1.0475 
6.02 5.6375 1.175 
6.02 5.51 1.175 
6.1475 5.6375 1.175 
6.1475 5.3825 1.3025 
6.275 5.51 1.43 
6.4025 5.6375 1.3025 
6.53 5.765 1.43 
6.6575 5.8925 1.3025 
5.51 5.255 1.0475 
5.6375 5.3825 0.92 
5.6375 5.3825 1.0475 
5.765 5.51 1.0475 
5.765 5.6375 0.92 
5.8925 5.76615 0.918852 
5.8925 5.6375 0.92 
5.8925 5.6375 1.0475 
5.255 5.255 0.92 
5.255 5.3825 0.92 
5.255 5.50656 0.670167 
5.51 5.51 0.92 
5.3825 5.255 0.92 
5.3825 5.3825 0.7925 
5.51 5.3825 0.92 
5.6375 5.51 0.92 
5.3825 4.8725 0.92 
5.51 4.8725 1.0475 
5.3825 4.8725 1.0475 
5.8925 4.6175 1.175 
5.765 4.6175 1.175 
5.765 4.745 1.175 
5.6375 4.745 1.175 
6.1475 5.1275 1.3025 
6.275 5.255 1.43 
6.4025 5.3825 1.3025 
5.8925 4.8725 1.175 
5.765 4.8725 1.175 
5.765 5 1.175 
5.6375 5 1.175 
5.8925 5 1.175 
5.6375 5.255 1.0475 
5.765 5.3825 1.0475 
5.8925 5.1275 1.175 
5.765 5.1275 1.175 
5.6375 5 1.0475 
5.51 5 1.0475 
5.51 5.255 0.92 
5.6375 5.1275 0.92 
5.765 5.1275 1.0475 
5.6375 5.1275 1.0475 
6.02 5.1275 1.175 
6.02 5.255 1.175 
5.8925 5.255 1.175 
5.8925 5.51 1.0475 
6.02 5.6375 1.0475 
6.1475 5.3825 1.175 
6.02 5.3825 1.175 
5.8925 5.255 1.0475 
5.765 5.255 1.0475 
5.765 5.51 0.92 
5.8925 5.3825 0.92 
6.02 5.3825 1.0475 
5.8925 5.3825 1.0475 
5.8925 4.745 1.175 
6.1475 4.6175 1.3025 
6.02 4.745 1.175 
6.02 4.8725 1.175 
6.02 5 1.175 
6.1475 5.1275 1.175 
6.1475 4.8725 1.175 
6.1475 4.8725 1.3025 
6.1475 4.3625 1.3025 
6.4025 5.1275 1.3025 
6.275 4.745 1.43 
6.4025 4.8725 1.3025 
6.275 5.51 1.175 
6.1475 5.51 1.175 
6.4025 5.6375 1.175 
6.275 5.6375 1.175 
6.275 5.765 1.175 
6.1475 5.765 1.175 
6.1475 6.02 1.0475 
6.4025 5.8925 1.175 
6.275 5.8925 1.175 
6.4025 5.765 1.175 
6.1475 5.765 1.0475 
6.02 5.765 1.0475 
6.02 5.8925 0.92 
6.1475 6.02 0.92 
6.1475 5.8925 0.92 
6.275 5.8925 1.0475 
6.1475 5.8925 1.0475 
6.275 6.02 1.0475 
6.53 5.8925 1.175 
6.4025 6.02 1.0475 
6.53 6.02 1.175 
6.4025 6.02 1.175 
6.53 6.1475 1.175 
6.6575 6.275 1.175 
6.6575 6.1475 1.175 
6.785 6.275 1.175 
6.6575 5.3825 1.3025 
6.53 5.765 1.175 
6.6575 5.8925 1.175 
6.6575 5.6375 1.3025 
6.785 5.765 1.43 
6.9125 5.6375 1.3025 
6.9125 5.8925 1.3025 
7.1675 5.6375 1.3025 
7.295 5.765 1.43 
7.1675 5.8925 1.3025 
7.4225 5.8925 1.3025 
7.1675 6.1475 1.3025 
7.295 6.275 1.43 
7.4225 6.1475 1.3025 
7.4225 6.4025 1.3025 
7.55 6.53 1.43 
7.805 6.785 1.43 
7.6775 6.6575 1.3025 
7.6775 6.4025 1.3025 
7.9325 6.6575 1.3025 
6.785 6.02 1.175 
6.6575 6.02 1.175 
7.04 6.02 1.175 
6.9125 6.02 1.175 
6.9125 6.1475 1.175 
6.785 6.1475 1.175 
6.9125 6.275 1.175 
7.1675 6.1475 1.175 
7.04 6.1475 1.175 
7.04 6.275 1.175 
7.1675 6.4025 1.0475 
7.1675 6.4025 1.175 
7.295 6.53 1.175 
7.6775 6.1475 1.3025 
7.805 6.275 1.43 
7.9325 6.4025 1.3025 
8.315 6.785 1.43 
8.1875 6.6575 1.3025 
8.57 6.785 1.43 
8.4425 6.6575 1.3025 
8.825 6.785 1.43 
8.6975 6.6575 1.3025 
8.9525 6.6575 1.3025 
7.295 6.275 1.175 
7.1675 6.275 1.175 
7.4225 6.4025 1.175 
7.295 6.4025 1.175 
7.55 6.53 1.175 
7.4225 6.53 1.175 
7.6775 6.6575 1.175 
7.55 6.6575 1.175 
7.6775 6.785 1.175 
7.805 6.785 1.175 
7.9325 6.9125 1.175 
8.315 7.04 1.175 
8.4425 7.04 1.175 
8.57 7.04 1.175 
8.6975 7.04 1.175 
8.825 7.04 1.175 
8.9525 7.04 1.175 
9.08 7.1675 1.0475 
9.2075 7.1675 1.0475 
9.335 7.1675 1.0475 
7.9325 6.785 1.175 
8.06 6.9125 1.175 
8.06 6.785 1.175 
8.1875 6.9125 1.175 
8.1875 6.785 1.175 
8.315 6.9125 1.175 
8.315 6.785 1.175 
8.4425 6.9125 1.175 
8.4425 6.785 1.175 
8.57 6.9125 1.175 
8.57 6.785 1.175 
8.6975 6.9125 1.175 
9.08 6.785 1.175 
9.2075 6.785 1.175 
8.6975 6.785 1.175 
8.825 6.9125 1.175 
8.9525 6.785 1.175 
8.825 6.785 1.175 
8.9525 6.9125 1.175 
9.08 6.9125 1.175 
8.825 7.04 1.0475 
8.9525 7.04 1.0475 
8.9525 7.04214 0.917985 
8.9525 6.9125 0.92 
9.08 6.9125 1.0475 
8.9525 6.9125 1.0475 
9.08 7.04 1.0475 
9.2075 7.04 1.0475 
9.08106 6.52997 1.42402 
9.2075 6.4025 1.3025 
9.2075 6.6575 1.175 
8.1875 6.4025 1.3025 
8.57 6.53 1.43 
8.4425 6.4025 1.3025 
[...]
<PointData>
<DataArray type="Float64" Name="proteus_solution" NumberOfComponents="8" format="ascii">
1121.64 -0.00155544 -0.000251011 -0.000815013 0.93886 0.162505 0.167023 -0.0045181 
691.719 0.0010562 -0.00161812 -0.00166913 0.994371 0.302282 0.310258 -0.00797602 
445.34 0.00171076 0.000669476 -0.00399387 0.996067 0.418836 0.427586 -0.0087499 
1080.48 -6.0293e-05 -0.000463019 -0.00606281 0.883037 0.172373 0.175025 -0.00265162 
1072.52 0.000339191 0.000721224 -0.00322726 0.902114 0.172249 0.17501 -0.00276077 
1088.54 -0.000487186 0.000572319 0.00166318 0.918823 0.172484 0.175002 -0.00251797 
715.817 0.00102024 0.000383893 0.000415333 0.988164 0.294972 0.302512 -0.0075406 
1349.9 -0.000259097 -9.61559e-05 -0.000415645 0.846905 0.102794 0.105059 -0.00226541 
977.286 0.00124852 0.000167359 -0.00252358 0.961044 0.203053 0.209019 -0.00596543 
732.003 0.00223851 0.000510508 -0.00177452 0.98167 0.289659 0.296847 -0.0071877 
739.795 0.00316737 0.000598806 -0.00271017 0.997814 0.285341 0.2928 -0.00745949 
1156.17 -0.000870152 -0.000526634 -0.000751488 0.924454 0.150803 0.155249 -0.00444643 
881.832 -0.00157471 -0.000770673 -0.00143294 0.988944 0.236088 0.242646 -0.00655792 
929.641 -0.0013423 -0.000609003 -0.00218138 0.991086 0.220533 0.226729 -0.00619562 
1076.23 -0.000774288 -0.000224213 -0.000690079 0.921386 0.172316 0.177138 -0.00482182 
1361.95 0.000615886 0.000262601 -2.9225e-05 0.851288 0.100772 0.102784 -0.00201182 
1393.76 -0.000279278 9.53283e-05 -0.000576636 0.855385 0.0930923 0.0947745 -0.00168222 
1630.44 -0.00060653 -2.67512e-05 0.000474654 0.677617 0.0412126 0.0401383 0.0010743 
1474.66 -0.00106231 -0.000588198 -0.000567233 0.82107 0.0747446 0.0755124 -0.000767829 
1476.67 0.00057842 -0.000308007 -0.000604602 0.760305 0.0737726 0.0744573 -0.000684734 
1068.66 0.00131753 0.000299856 -0.00205702 0.882569 0.172255 0.176883 -0.00462772 
1073.55 -2.93187e-05 -0.000696829 -0.00649355 0.880562 0.173617 0.177954 -0.0043366 
1828.9 -0.000127232 6.36757e-05 -0.000312854 0.503834 0.00100099 -0.00224986 0.00325084 
1598.4 0.000306363 -0.000269143 -0.000275001 0.655755 0.0464648 0.0456632 0.000801608 
1645.91 -0.000501999 -0.000502541 5.43408e-05 0.652655 0.0373089 0.036024 0.00128482 
1628.06 -0.000206224 -1.03766e-05 0.000990411 0.650248 0.041211 0.0401332 0.00107774 
721.896 0.00113459 -0.000149181 -0.000211327 0.984757 0.293365 0.300599 -0.00723345 
727.507 0.00242751 0.000585812 -0.000763365 0.999044 0.290008 0.297505 -0.00749688 
718.158 0.00171616 -0.000275784 -0.000413318 0.992617 0.294976 0.302514 -0.0075382 
964.193 -4.99731e-05 -0.000410826 -0.00204499 0.974047 0.206847 0.21287 -0.0060221 
1010.5 0.00105058 0.00017035 -0.00182058 0.950153 0.191288 0.197047 -0.00575904 
2242.89 0.000370604 -0.000267872 -7.86664e-05 0.273099 -0.0747824 -0.0819536 0.00717123 
1478.88 0.000408108 0.000160404 -0.000598065 0.764612 0.0720502 0.0728854 -0.000835223 
422.653 -0.000582061 0.00115276 -0.013694 0.917273 0.405187 0.412777 -0.0075892 
721.221 -0.00113467 -0.000605984 0.00205385 0.973833 0.295837 0.302506 -0.00666824 
718.76 0.00257301 0.0019357 0.000555497 0.973634 0.2961 0.302509 -0.00640942 
716.916 -0.00203171 0.000496768 0.000366374 0.972123 0.295796 0.302505 -0.00670831 
453.503 -0.000727426 -0.00127532 -0.00149192 0.992414 0.421615 0.430016 -0.00840021 
496.524 -0.00219805 -0.0010621 0.00265168 0.976944 0.397622 0.405339 -0.00771703 
464.282 -0.00221752 0.000684433 -0.0057699 0.98165 0.40983 0.418106 -0.00827512 
440.47 -0.00130247 0.00107293 -0.00463259 0.996169 0.427358 0.435932 -0.00857447 
573.969 0.00490324 -0.00257506 -0.0071424 0.977951 0.349889 0.358254 -0.00836493 
445.027 -0.00115327 -0.00470186 -0.0129674 0.973988 0.421418 0.43003 -0.008612 
458.325 -0.00550796 -0.000494266 -0.00962102 0.988014 0.41616 0.424774 -0.00861415 
586.576 0.000235162 0.00125602 -0.00755847 0.961496 0.341614 0.349987 -0.00837322 
435.489 -0.0022722 0.00441526 -0.0114502 0.977818 0.429088 0.43777 -0.00868235 
433.952 0.00344957 -0.00372305 -0.0101131 0.963561 0.421407 0.430065 -0.00865896 
216.167 0.00286729 0.00064195 0.00138489 0.999378 0.652792 0.661563 -0.00877105 
207.881 0.00241263 -0.00105865 0.00443239 0.999494 0.676438 0.685038 -0.00859978 
1080.36 9.2891e-05 -0.000195921 -0.00593104 0.879502 0.172332 0.175028 -0.00269644 
719.238 0.00251567 -0.00263315 0.000972869 0.972047 0.297815 0.302524 -0.00470953 
1072.7 -0.000295756 -0.00062219 -0.0037334 0.902098 0.172239 0.175013 -0.00277437 
1074.53 -0.00217267 0.000459309 -0.00120103 0.8839 0.172196 0.175019 -0.0028233 
727.465 -0.00270442 -0.00249194 0.000837269 0.967467 0.297807 0.302513 -0.00470626 
1086.2 8.52487e-05 -0.000488523 -0.00795456 0.874826 0.172403 0.175038 -0.00263451 
406.827 0.00188297 -0.000312246 -0.0147747 0.942502 0.424218 0.430043 -0.00582461 
1074.93 -0.00198539 0.000290491 -0.00177578 0.895123 0.172289 0.175019 -0.00273082 
406.823 -6.89205e-07 -0.00151569 -0.0149157 0.929942 0.424192 0.430044 -0.00585259 
719.445 -0.0026184 0.00259893 0.000306218 0.966394 0.297869 0.302521 -0.00465143 
1075.1 -0.000148784 0.00165128 -0.00157725 0.916897 0.172246 0.175019 -0.0027731 
456.917 -0.000946852 -0.000878138 0.007839 0.984818 0.42432 0.430012 -0.00569215 
727.141 -0.00298766 -0.00284306 0.00116054 0.978488 0.297921 0.302519 -0.00459782 
216.364 0.00309707 0.00314524 0.00479837 0.985368 0.67912 0.685048 -0.0059274 
719.219 -0.0025274 0.0028227 0.0013134 0.954997 0.297972 0.302523 -0.00455044 
456.9 0.000766577 0.000787454 0.00783721 0.987996 0.424208 0.43001 -0.00580199 
727.122 0.00293691 0.00297154 0.00139286 0.967503 0.297869 0.302518 -0.00464854 
719.501 0.00255978 -0.00254386 -0.000276795 0.967531 0.297916 0.302522 -0.00460604 
1088.47 0.000870515 0.00172849 0.00179216 0.920888 0.17254 0.175003 -0.002463 
1072.76 0.000459911 0.000206833 -0.00361508 0.856817 0.172391 0.175013 -0.00262175 
1087.36 0.000161515 0.0007938 0.0012782 0.912612 0.172565 0.175006 -0.0024413 
1085.3 0.000303436 -0.000640455 -0.00765147 0.874822 0.1724 0.175016 -0.0026155 
1088.5 0.0010669 0.00182189 0.00162928 0.918756 0.172437 0.175 -0.00256318 
1086.39 0.000128112 -0.000575999 -0.00881047 0.879835 0.172308 0.175033 -0.00272493 
719.279 -0.00280708 0.00256435 0.00131459 0.967495 0.297856 0.302523 -0.00466744 
1072.53 -0.000501829 -0.00101565 -0.00325307 0.876249 0.172349 0.175009 -0.00266048 
1075.2 -0.000180138 -0.00220218 -0.00256282 0.877225 0.172309 0.175017 -0.00270778 
1074.93 0.00175408 0.000427499 -0.00218819 0.877201 0.172294 0.175018 -0.00272404 
1590.83 -0.000164968 0.000112677 -0.00107129 0.646571 0.0495505 0.0475106 0.00203982 
1590.74 -7.24832e-05 8.78045e-05 0.000672329 0.645903 0.0494878 0.0474932 0.00199461 
1072.86 0.000744322 0.000410113 -0.0031246 0.877214 0.172302 0.175011 -0.00270808 
2234.05 -0.00011623 -0.000813991 -0.000687404 0.288109 -0.0727121 -0.0800036 0.00729151 
1590.79 -4.35809e-05 -2.45971e-05 0.000644526 0.648543 0.0495567 0.0474936 0.00206312 
1590.82 -0.000108895 0.000437342 -0.00103165 0.646688 0.0495601 0.0475108 0.00204935 
1590.9 -0.000114855 -0.000317028 0.000628823 0.646665 0.0495519 0.0474937 0.00205828 
1080.43 -6.36986e-05 -0.000474635 -0.00601615 0.874889 0.172445 0.175024 -0.00257894 
1087.71 0.000370519 0.000820838 0.0012969 0.918891 0.172533 0.175007 -0.00247416 
1086.4 0.000129395 -0.000552554 -0.00863259 0.868731 0.172466 0.175037 -0.00257117 
1074.73 -0.00230745 0.00029825 -0.00172093 0.866281 0.172359 0.175021 -0.00266218 
1588.4 -1.05763e-05 -0.000228831 0.000208844 0.646621 0.0495364 0.0474984 0.00203803 
1088.56 -0.000377384 0.000355879 0.00147797 0.91891 0.172546 0.175002 -0.00245581 
1074.95 -0.000368773 0.00157396 -0.000713635 0.877274 0.172342 0.175017 -0.00267536 
1080.6 3.17422e-05 -0.000104691 -0.00607939 0.874852 0.17242 0.175024 -0.00260396 
1087.47 6.84675e-05 0.000771612 0.00124397 0.918827 0.172488 0.175006 -0.0025186 
1085.45 0.000398735 -0.000905919 -0.00768951 0.874907 0.172456 0.175003 -0.0025468 
1072.75 0.000148106 -0.00022144 -0.003597 0.877266 0.172336 0.175009 -0.00267246 
1588.58 6.00118e-05 -0.000147306 0.000100505 0.646671 0.049554 0.0474994 0.00205455 
1588.24 6.28905e-06 -0.000211968 -0.000368521 0.646684 0.0495585 0.0475036 0.00205491 
1088.62 0.00114987 0.00163433 0.00164625 0.918858 0.172509 0.175003 -0.00249346 
1073.07 0.000209775 -0.000626245 -0.00369714 0.877262 0.172334 0.175011 -0.00267713 
727.489 0.00268707 0.00267604 0.00107646 0.967468 0.297809 0.302517 -0.00470762 
719.257 0.00250748 -0.00239648 0.00151316 0.967439 0.29776 0.302527 -0.00476667 
457.136 1.6576e-05 -9.49287e-05 0.00678338 0.987965 0.424085 0.430012 -0.00592626 
1080.3 -8.82192e-05 -0.000408 -0.00589562 0.874757 0.172358 0.175028 -0.00267065 
1072.53 -0.000432158 -0.000673831 -0.00366906 0.877162 0.172268 0.175011 -0.0027437 
1087.34 0.000187881 0.00103061 0.00163028 0.918714 0.172408 0.175009 -0.00260175 
1074.8 9.35942e-05 -0.00227352 -0.00186187 0.877083 0.172216 0.175015 -0.00279954 
1074.49 0.0018983 8.90738e-05 -0.00161084 0.875463 0.172164 0.175016 -0.00285176 
1080.34 3.66175e-05 -0.000174268 -0.00597846 0.868416 0.172259 0.175028 -0.00276931 
1087.37 0.000172551 0.000807417 0.00128146 0.916288 0.172295 0.175006 -0.00271103 
719.171 -0.00253118 0.002815 0.00131624 0.963147 0.297642 0.302523 -0.0048811 
727.439 -0.00270444 -0.00258271 0.000922902 0.967398 0.297691 0.302517 -0.00482678 
1079.97 -2.1815e-05 -0.000477712 -0.00601497 0.878727 0.17182 0.175026 -0.00320529 
709.019 -0.0022963 0.00297242 0.00194496 0.968351 0.296351 0.302515 -0.00616371 
1073.93 -0.0001015 -0.000378422 -0.0044673 0.884938 0.171044 0.175014 -0.00397002 
1071.2 -0.000354623 0.000402143 -0.00299641 0.889503 0.170889 0.175007 -0.00411855 
1082.06 -0.000195164 -0.000275251 -0.00625586 0.889479 0.170953 0.175007 -0.00405426 
1065.65 -0.0010029 -1.59844e-05 -0.00281254 0.885178 0.171769 0.176064 -0.00429521 
725.792 -0.00268351 -0.00251844 0.00044906 0.966878 0.296815 0.302513 -0.00569713 
715.092 0.00281673 -0.0027415 0.000919294 0.967307 0.296622 0.302516 -0.0058946 
722.969 -0.00239082 -0.00235747 0.000536937 0.96798 0.296433 0.302504 -0.00607053 
719.149 0.00274491 -0.00132942 0.00205296 0.9695 0.292775 0.299122 -0.00634724 
1070.84 0.000278853 0.00226935 -0.000837037 0.876905 0.170949 0.175009 -0.00405968 
1083.26 8.24054e-05 -0.000546862 -0.00848853 0.876924 0.171099 0.175017 -0.00391791 
1084.8 -0.000417152 0.000385973 0.00137782 0.916877 0.171116 0.175001 -0.00388472 
499.169 -0.00144783 -0.000169219 0.00239971 0.982501 0.397277 0.404945 -0.00766784 
722.947 0.00263388 0.00195117 4.08796e-05 0.971684 0.296174 0.302513 -0.00633915 
476.111 -0.00015748 -0.000773397 -0.0019899 0.986348 0.407247 0.415496 -0.00824924 
734.431 -0.00113745 0.000633039 0.000264833 0.972191 0.289122 0.295721 -0.00659935 
714.789 0.00141748 -0.000152127 -0.00140441 0.994607 0.295043 0.30254 -0.0074965 
1239.89 -0.000415363 -0.000481837 -0.00127033 0.876368 0.129508 0.132919 -0.00341106 
775.56 0.00373306 0.000932885 -0.0036683 0.978055 0.268322 0.275738 -0.00741652 
733.505 0.000801895 -0.000145964 -8.15272e-05 0.984621 0.2876 0.294746 -0.007146 
743.092 0.00178561 0.000563668 -0.00204041 0.991996 0.286617 0.293951 -0.00733345 
1088.36 0.00215101 0.000319711 -0.000937304 0.916695 0.16847 0.173404 -0.0049339 
1071.67 0.00246741 0.000462253 -0.00110249 0.882655 0.170884 0.175005 -0.00412121 
1073.2 0.000418881 -0.000316289 -0.00269773 0.888907 0.17084 0.175005 -0.00416411 
1074.59 -0.000153038 -0.000451989 -0.00438367 0.889344 0.170912 0.175008 -0.00409576 
1084.41 0.000286562 0.000782399 0.00128171 0.916995 0.170946 0.174999 -0.00405358 
1072.84 -0.00127452 0.000217189 -0.00249038 0.884173 0.170755 0.175006 -0.00425073 
1068.67 0.000409166 0.000103611 -0.00232041 0.876093 0.1706 0.175005 -0.00440542 
1083.14 -0.00033352 -0.00028838 -0.00568927 0.878211 0.170788 0.175013 -0.004225 
1089.03 -0.00101715 0.000203486 -0.000204267 0.914788 0.170667 0.17501 -0.00434243 
1141.39 -8.29199e-05 0.000180047 -0.00155279 0.906092 0.155071 0.159276 -0.0042047 
1077.52 0.000926489 -3.99897e-05 -0.00126873 0.888551 0.170486 0.175006 -0.00451994 
1093.27 -0.000361284 -0.000389281 -0.000841103 0.920217 0.16801 0.172652 -0.00464175 
1366.3 -0.000109435 0.000139806 -0.000233076 0.82361 0.0984054 0.100414 -0.00200905 
1495.91 0.000279638 0.000374742 -0.000217947 0.74248 0.0693884 0.069825 -0.000436634 
1502.51 0.00022785 6.87779e-05 4.01591e-05 0.748309 0.0679542 0.0683348 -0.000380647 
1301.38 4.74065e-05 -0.00017097 1.12134e-05 0.869762 0.115204 0.117833 -0.00262948 
1958.12 -0.000328224 0.00012851 -0.000342458 0.415049 -0.0233283 -0.0279209 0.00459264 
1805.59 0.000735977 0.000195811 0.000174562 0.524132 0.00616996 0.00319011 0.00297984 
1598.3 0.000567582 6.73179e-05 -8.11535e-06 0.648901 0.046416 0.0456231 0.000792933 
1757.86 0.000402307 8.11618e-06 0.000177944 0.556016 0.0148888 0.0123899 0.00249896 
2468.56 -0.000786636 -0.000203154 0.000237656 0.170499 -0.112245 -0.12109 0.00884491 
1578.67 0.000165329 4.43848e-05 -0.000295179 0.650662 0.050845 0.0500967 0.000748333 
1566.68 0.000390587 -5.07654e-05 -0.00043548 0.669174 0.0530784 0.052615 0.000463389 
2230.42 -6.89367e-05 -0.00061221 -0.000804731 0.288126 -0.0732651 -0.0800028 0.00673775 
1583.95 -0.000286017 -0.000195918 0.000105012 0.644265 0.0488757 0.0479663 0.000909412 
1587.29 -0.000191714 -4.92488e-05 0.000418085 0.643834 0.0484999 0.0474958 0.00100408 
1593.83 -0.000184497 0.000162734 -0.000783739 0.644532 0.047624 0.0466287 0.000995246 
1583.84 7.05033e-05 0.000138918 -5.323e-05 0.651538 0.049327 0.0485399 0.000787081 
2231.69 -0.0001538 -1.36273e-05 0.00037709 0.276916 -0.0732531 -0.080298 0.00704497 
2139.65 -0.000451268 -0.000106927 -0.00044833 0.331348 -0.0566191 -0.0626846 0.00606545 
2111.62 -9.15874e-05 7.23968e-06 0.000221726 0.338877 -0.0522197 -0.0582363 0.00601659 
449.191 -0.00203478 0.00287685 -0.00269376 0.996514 0.430778 0.439301 -0.00852346 
1083.38 0.000144063 0.000841266 0.00193698 0.917405 0.171136 0.175003 -0.00386701 
1072.51 -3.077e-05 0.000409654 -0.00259629 0.889211 0.170871 0.175005 -0.00413382 
1083.03 -0.000136705 -0.000202088 -0.00633719 0.8856 0.171017 0.175007 -0.00398957 
1085.25 0.000564657 0.00111372 0.00169039 0.916624 0.17098 0.174999 -0.0040189 
1085.35 -0.00053876 2.21131e-05 -0.000571555 0.920852 0.169858 0.174519 -0.00466107 
1394.38 0.000837954 -0.000152865 -0.000576165 0.803426 0.0934325 0.0950037 -0.00157116 
1555.5 -0.000659866 -0.00121333 -0.000899803 0.72782 0.0570801 0.0568934 0.000186719 
1070.41 -0.000664171 4.83495e-05 -0.00254501 0.883768 0.170799 0.175005 -0.00420655 
1070.45 0.000351554 -3.10961e-05 -0.00192517 0.882976 0.170638 0.175007 -0.00436893 
1073.09 0.000817925 -7.87691e-05 -0.00168158 0.892138 0.171444 0.175971 -0.0045274 
1072.98 0.000112032 -0.000441924 -0.00574311 0.886902 0.174198 0.178487 -0.00428874 
1168.1 -0.000493128 0.000282552 -0.000349284 0.88601 0.149052 0.152589 -0.003537 
1114.02 2.27085e-05 -1.32184e-06 -0.000614518 0.918332 0.162519 0.166914 -0.00439538 
1737.79 4.81782e-05 -0.000213106 7.37277e-05 0.571474 0.0189251 0.016648 0.0022771 
3628.54 -0.000290731 2.88262e-05 -0.000898314 0.00541425 -0.282895 -0.296569 0.0136739 
3042.3 0.000555617 -6.30202e-05 8.80411e-05 0.0740822 -0.200849 -0.212725 0.0118761 
2941.89 0.000491234 0.000223691 5.30557e-05 0.0673015 -0.185411 -0.196638 0.0112269 
1331.09 -0.0011099 0.00113271 -0.00152065 0.838395 0.105692 0.108224 -0.00253259 
1270.17 0.00135954 0.0010475 0.00097914 0.879504 0.122795 0.12573 -0.00293567 
1392.03 2.10813e-05 -0.000175511 -0.000493814 0.819364 0.0928881 0.0945412 -0.00165311 
2522.35 -8.827e-05 4.49382e-05 0.000251646 0.170519 -0.120564 -0.129631 0.00906745 
1931 -0.000542861 0.000188538 8.4738e-06 0.433521 -0.0191443 -0.0235288 0.00438453 
1997.8 -0.000438832 0.000247439 0.000295904 0.393028 -0.0304615 -0.0353652 0.00490365 
1513.34 0.00149304 -0.000576254 4.80945e-06 0.737896 0.0642064 0.064658 -0.000451592 
1739.89 -4.82953e-05 6.91115e-05 -0.000108262 0.583053 0.0188488 0.016556 0.00229276 
1755.93 -0.000632869 -0.000467423 0.000477095 0.553832 0.014376 0.0117926 0.00258337 
1589.87 0.00030222 0.000152245 -8.69753e-05 0.654711 0.0482025 0.047443 0.000759541 
1853.03 0.00021652 -7.03009e-05 0.000257179 0.484007 -0.00356184 -0.00707598 0.00351415 
1979.58 -7.09604e-05 -0.000409141 -8.40152e-05 0.407662 -0.0274689 -0.0322974 0.00482849 
717.713 -0.000275478 -0.000898856 0.00238568 0.97855 0.295783 0.302508 -0.00672491 
725.617 0.00121447 0.000200616 -0.000876098 0.980285 0.293951 0.30129 -0.00733909 
774.402 0.00057837 -0.000432932 0.000313264 0.975268 0.271801 0.278653 -0.00685164 
731.31 0.00141077 0.00015162 -0.00368333 0.9652 0.283074 0.290624 -0.00755008 
1664.52 0.000599081 0.000244242 -0.000112651 0.644691 0.0337076 0.0324489 0.00125875 
1273.47 0.000679015 0.000606336 0.000406662 0.85495 0.12256 0.125327 -0.00276678 
726.85 -0.00273883 -0.00241713 0.000583923 0.962799 0.297085 0.302515 -0.0054294 
717.963 0.00276245 -0.00241886 0.00157959 0.96503 0.296953 0.302525 -0.00557255 
406.601 0.000126845 -0.00029375 -0.01176 0.928086 0.423078 0.430045 -0.00696705 
452.386 -0.00202313 -9.16616e-05 -0.024995 0.911642 0.414752 0.422241 -0.00748872 
458.651 0.00149411 -0.00112397 -0.0118022 0.926068 0.389041 0.396822 -0.00778119 
206.59 0.00206915 0.000313361 -0.00212502 0.99798 0.676427 0.685037 -0.00861014 
208.73 0.00548214 0.000350348 -0.000585492 0.991029 0.655584 0.663953 -0.00836894 
133.554 0.00158312 -0.00130117 0.0227167 1 1.15096 1.15895 -0.00799438 
436.265 -0.000492322 -0.000279995 -0.0275246 0.93146 0.422954 0.430061 -0.00710747 
413.762 -0.00241328 -0.00136399 -0.0133704 0.93297 0.415434 0.422763 -0.00732896 
727.387 0.00262885 0.00270851 0.00102815 0.959527 0.297596 0.302517 -0.00492076 
719.103 -0.00253217 0.00256029 0.00187829 0.967292 0.297512 0.302525 -0.00501297 
457.072 -0.000126617 3.01457e-05 0.00683656 0.986494 0.423851 0.430012 -0.00616057 
718.971 0.00277509 -0.00242256 0.000952896 0.967234 0.297413 0.302522 -0.00510867 
406.28 -0.000454173 -0.00153683 -0.014861 0.93773 0.423493 0.430045 -0.00655273 
406.48 0.00167544 -0.000121472 -0.0145146 0.928397 0.423637 0.43004 -0.00640323 
334.881 -0.000579103 0.000217856 -0.00346428 1 0.520785 0.529453 -0.00866788 
481.29 -0.00199372 -2.95517e-06 -0.00731124 0.981608 0.397122 0.405313 -0.00819046 
215.985 0.000805112 -0.00241031 0.00686353 0.985535 0.670805 0.678432 -0.00762689 
411.041 -0.0013572 0.000183698 -0.0103426 0.93957 0.421146 0.428734 -0.00758794 
466.052 0.00157228 -0.000621694 -0.0102401 0.943183 0.391417 0.39919 -0.0077732 
225.577 0.00457517 0.000203676 -0.00446741 0.998863 0.639048 0.647576 -0.0085276 
213.483 0.00439505 -9.47971e-05 -0.000395914 0.992901 0.647938 0.65624 -0.00830277 
440.135 -0.00184014 -0.000698728 -0.00245083 0.999995 0.429883 0.438507 -0.00862371 
506.099 0.00116551 -0.00120597 -0.0035484 0.999135 0.388336 0.396913 -0.00857722 
445.346 -0.000844427 -0.000542404 -0.00413452 0.995768 0.421356 0.430017 -0.00866024 
226.491 0.00154714 -0.000985937 -0.000682111 1 0.637516 0.646134 -0.00861756 
439.036 0.00341588 0.00109252 -0.00677284 0.999573 0.426104 0.43486 -0.00875565 
202.158 0.00187312 -0.00204987 -0.00471102 1 0.678654 0.687424 -0.00877015 
206.728 0.000766789 0.000526452 -0.00312398 0.998117 0.662156 0.670932 -0.00877604 
270.786 -0.00389153 -0.00206138 -0.0135015 0.999867 0.561065 0.570011 -0.00894527 
296.482 -0.000216367 0.000728749 -0.0108191 0.986347 0.511122 0.520028 -0.0089065 
138.678 -0.00531228 -0.00191473 0.00672469 0.999997 0.957912 0.966182 -0.00826972 
180.898 -0.0156811 0.00272853 -0.0218264 0.989249 0.697965 0.706778 -0.00881327 
140.088 -0.00333887 0.000924877 0.0141722 1 0.95139 0.959735 -0.00834418 
141.122 0.000590062 -0.00223086 0.0014947 1 0.918547 0.926776 -0.00822827 
129.116 0.00163121 0.000632824 0.0205229 1 1.36648 1.37427 -0.00779327 
133.567 0.0052003 0.00232971 0.0164568 1 1.14555 1.15346 -0.00790652 