<VTKFile type="UnstructuredGrid">
<UnstructuredGrid>
<Piece NumberOfPoints="8684" NumberOfCells="47178">
<Points>
<DataArray type="Float64" Name="coordinates" NumberOfComponents="3" format="ascii">
10 0 10 
9.19138 0 10 
9.41004 0.634479 10 
10 0.958099 10 
10 0.742384 9.27815 
10 1.56604 9.31461 
10 1.9162 10 
8.38276 0 10 
10 2.87842 10 
10 3.80661 10 
10 2.58516 9.21288 
8.96871 0 9.27234 
9.20512 0.877995 9.10763 
10 0 9.08713 
10 0.672967 8.5092 
10 0 8.15297 
10 1.25719 8.75796 
9.59235 2.2645 8.75328 
10 1.35267 8.09901 
10 1.94259 8.57817 
8.70902 0.806182 10 
9.25688 1.45523 10 
8.81434 1.28955 9.58146 
9.17347 1.74208 9.15568 
7.86377 1.46902 9.64094 
10 2.78635 8.31149 
10 3.60804 9.48051 
9.23781 2.51709 10 
9.36821 3.73937 10 
8.68742 2.44907 9.54 
7.73622 1.31494 9.53047 
7.67315 0.908497 10 
7.57392 0 10 
7.85544 0 9.38867 
8.24159 0.896673 9.22542 
9.17671 2.72766 9.109 
10 4.76357 10 
9.48774 4.35962 9.53443 
10 3.6042 8.08475 
10 3.39498 8.79114 
10 4.2195 8.87907 
8.29115 0 8.4152 
9.22775 0.876836 8.19204 
10 0.702064 7.6727 
9.23896 0.403818 7.56522 
9.28604 0 8.08407 
10 0 7.21882 
9.20391 1.80318 8.15243 
10 0.758663 6.77698 
10 1.4326 7.29711 
10 2.94659 7.44925 
10 2.1081 7.77308 
9.54 2.53775 7.4111 
8.29998 1.95911 10 
0 10 8.14723 
0 10 7.21814 
0 10 6.28375 
6.4221 0.137396 1.17449 
6.1475 4.1075 0.92 
5.8925 4.3625 0.92 
5.765 4.49201 0.918225 
10 10 6.28375 
10 10 7.21814 
10 10 8.14723 
10 10 9.07361 
10 10 10 
10 1.76484 3.77068 
10 3.8033 7.17391 
9.53811 3.4592 7.74242 
10 3.97072 6.20452 
10 3.01214 6.50212 
10 5.02593 8.85353 
9.55216 4.52965 8.5084 
10 4.68603 6.97675 
10 4.47447 7.90366 
10 5.70548 8.5875 
9.22575 4.85278 10 
9.54 5.36026 9.54 
10 5.70847 10 
9.54 6.3424 9.54 
9.20761 6.38061 9.62615 
8.25277 0.926575 8.26644 
8.06163 1.83899 9.09767 
7.23314 1.89054 10 
7.61943 2.26546 9.55753 
5.8654 0.944383 10 
6.21849 1.78702 10 
6.79102 1.20975 10 
7.26376 2.47959 9.57033 
9.18271 2.78977 8.03664 
9.05985 3.67946 9.16514 
8.49271 3.22131 10 
8.67185 4.1374 10 
7.51525 3.48042 9.50027 
8.00189 2.73754 9.17564 
7.31236 0.949876 9.23624 
6.7222 0.493898 10 
6.31348 0.267374 9.60274 
6.63966 0 10 
7.27645 0 8.64448 
8.13763 1.86962 8.15007 
9.09258 4.75773 9.16792 
6.49169 0 1.28515 
9.12573 3.88903 8.08421 
7.8008 0 7.57565 
8.5617 0 7.53152 
9.20553 0.807246 7.26919 
9.21719 0 6.94667 
10 0 6.28817 
9.46633 2.55348 5.42482 
9.54 2.4784 5.19754 
10 0 5.36104 
10 1.51799 4.41282 
10 1.77957 5.10536 
8.2869 0.905079 7.32735 
9.17278 0.771903 6.43138 
9.1548 1.74574 7.185 
9.11274 2.88194 7.05574 
10 0.997632 5.83518 
10 1.49228 6.54899 
10 2.09519 5.9417 
10 2.18115 6.91871 
9.54591 1.58935 5.46944 
9.62318 2.41467 6.32789 
9.49187 2.537 6.47685 
6.4025 3.0875 0.92 
6.1475 3.8525 0.92 
6.275 3.98205 0.918147 
6.1475 3.5975 0.92 
6.275 3.72602 0.919015 
6.275 3.8525 0.92 
6.1475 3.3425 0.92 
6.275 3.47212 0.9179 
6.275 3.5975 0.92 
5.8925 3.3425 0.92 
5.8925 3.5975 0.92 
6.02 4.23607 0.918933 
6.1475 4.23615 0.918852 
6.1475 4.1075 0.7925 
6.275 4.235 0.665 
5.89251 4.36237 0.795816 
5.89249 4.10732 0.79587 
5.63751 4.61706 0.799386 
5.6375 4.36219 0.799165 
5.76538 4.47685 0.686929 
5.3825 4.6175 0.7925 
5.51001 4.7322 0.684961 
5.1275 4.87218 0.796094 
4.745 4.745 0.92 
0 10 9.07361 
0 10 10 
0.815658 10 10 
5.23248 10 10 
9.0625 10 10 
10 9.1916 10 
7.92713 3.96829 10 
7.45358 3.01765 10 
3.80661 0 10 
6.11387 0 1.23837 
6.26849 0.146817 1.1787 
6.34978 0.090364 1.11931 
6.40631 0.253528 1.1438 
6.42379 0 1.1023 
6.28717 0 1.17808 
6.34434 0.0629493 1.08266 
6.36104 0.0622938 1.04241 
6.1475 0.155 1.175 
6.21777 0.0775 1.06157 
6.08556 0.0775 1.14235 
6.41847 0.138558 1.06418 
6.53 0.2825 1.0475 
5.94169 0 1.24002 
6.02 0.155 1.175 
6.1495 0.257671 1.14231 
6.4025 0.5375 1.175 
0 10 5.35766 
0.877054 10 5.87947 
0.774996 10 6.93035 
0.771021 9.59343 7.50437 
0.692949 10 8.07238 
0 9.32415 9.26253 
0 9.04068 10 
0 9.35446 8.41285 
0 9.34303 6.51919 
0 9.35961 7.52167 
0 9.15746 5.50459 
5.69289 0.118733 1.27569 
6.1461 0.14671 1.30627 
6.53001 0.394956 1.18518 
6.52884 0.161137 1.29396 
6.27503 0.406658 1.17774 
6.275 0.2825 1.175 
6.275 0.155 1.3025 
6.4025 0.28 1.29703 
6.4025 0.408816 1.17617 
6.4025 1.5575 1.175 
6.53 0.665 1.175 
6.40248 0.537387 1.29919 
6.53 0.5375 1.175 
6.49548 0.177298 1.43998 
6.53 1.0475 1.175 
6.02 0.155 1.3025 
6.1475 0.2825 1.3025 
5.80469 0.164534 1.30157 
5.89329 0.277945 1.29027 
5.51 4.74901 0.916475 
5.6375 4.745 0.92 
5.765 4.6175 0.92 
5.6375 4.6175 0.92 
0.851854 9.42401 10 
10 2.68512 3.68551 
10 2.3758 4.41253 
6.53 1.43 1.175 
6.4025 1.8125 1.175 
6.4025 2.0675 1.175 
6.4025 2.3225 1.175 
6.4025 2.5775 1.175 
6.53 3.0875 1.0475 
6.4025 3.215 1.0475 
4.6175 4.6175 1.0475 
4.8725 4.6175 0.92 
4.8725 4.745 0.92 
4.745 4.745 1.0475 
5 4.745 0.92 
5.1275 4.8725 0.92 
5.255 4.8725 0.92 
5.1275 4.745 0.92 
5.1275 4.6175 0.92 
5.255 4.74598 0.91918 
5.3825 4.745 0.92 
5.3825 4.3625 0.92 
5.51 4.492 0.918278 
5.6375 4.49 0.92 
5.1275 4.3625 0.92 
5.255 4.6175 0.92 
5.3825 4.49 0.92 
5.255 4.49207 0.918108 
5.3825 4.6175 0.92 
5.51 4.6175 0.92 
6.53 2.45 1.175 
6.1475 2.8325 1.175 
6.275 2.705 1.175 
6.4025 2.8325 1.175 
6.53 2.96 1.0475 
6.4025 3.0875 1.0475 
6.4025 3.0875 1.175 
5.8925 3.8525 0.92 
6.02 3.98099 0.919089 
6.1475 3.98 0.92 
5.6375 3.8525 0.92 
5.8925 3.98 0.92 
5.765 3.98 0.92 
5.8925 4.1075 0.92 
6.02 4.1075 0.92 
5.3825 4.1075 0.92 
5.51 4.3625 0.92 
5.51 4.23912 0.916154 
5.6375 4.3625 0.92 
5.765 4.3625 0.92 
5.6375 4.235 0.92 
5.765 4.1075 0.92 
5.6375 4.1075 0.92 
5.765 4.23709 0.918003 
5.8925 4.23613 0.918915 
10 3.0168 5.39508 
9.54 3.4984 5.70754 
10 3.4422 4.4396 
6.1475 3.0875 1.175 
5.8925 3.3425 1.0475 
5.8925 3.3425 1.175 
5.765 3.47 1.0475 
6.02 3.47 1.0475 
5.8925 3.47 1.0475 
5.8925 3.5975 1.0475 
5.8925 3.5975 1.175 
6.02 3.725 1.0475 
5.8925 3.725 1.0475 
6.1475 3.5975 1.0475 
6.02 3.5975 1.0475 
6.275 3.215 1.0475 
6.1475 3.3425 1.0475 
6.1475 3.3425 1.175 
6.02 3.3425 1.0475 
6.275 3.215 1.175 
6.4025 3.3425 1.0475 
6.4025 3.3425 1.175 
6.275 3.3425 1.0475 
6.275 3.47 1.0475 
6.1475 3.47 1.0475 
6.275 3.5975 1.0475 
6.1475 3.5975 1.175 
6.275 3.725 1.0475 
6.1475 3.725 1.0475 
6.275 3.8525 1.0475 
6.275 3.725 1.175 
6.1475 3.8525 1.0475 
6.1475 3.8525 1.175 
6.02 3.8525 1.0475 
6.275 3.98 1.0475 
6.1475 3.98 1.0475 
6.275 4.1075 1.0475 
6.02 4.235 1.0475 
5.8925 4.235 1.0475 
6.02 4.3625 1.0475 
6.1475 4.3625 1.0475 
6.1475 4.1075 1.0475 
6.1475 4.1075 1.175 
6.02 4.1075 1.0475 
6.1475 4.235 1.0475 
6.1475 4.49 1.175 
6.1475 4.3625 1.175 
5.8925 4.3625 1.0475 
5.8925 4.3625 1.175 
5.765 4.3625 1.0475 
5.765 4.49 1.0475 
5.6375 4.49 1.0475 
6.02 4.49 1.0475 
5.8925 4.49 1.0475 
5.8925 4.6175 1.175 
5.765 4.6175 1.0475 
6.275 4.235 1.175 
10 10 5.35865 
9.52326 4.38955 6.47876 
10 4.23569 5.24947 
10 5.06519 3.35554 
10 4.63006 4.3275 
9.61667 5.24644 4.53784 
10 9.04722 4.78764 
9.61907 8.64291 5.30903 
10 9.1059 5.90691 
9.15746 10 5.50459 
10 5.2798 7.76118 
10 4.98347 6.02162 
10 5.60438 6.7956 
10 5.9455 5.88838 
10 5.37087 5.10852 
9.54 5.49817 4.60225 
9.54187 5.57665 5.51435 
9.58634 5.50369 2.9679 
10 6.21069 3.28241 
10 5.96842 4.20358 
9.57553 5.54608 3.67755 
9.70682 5.7192 3.57826 
10 7.1682 4.5562 
10 6.29652 5.06493 
9.54 6.51817 4.60225 
10 8.02332 5.43979 
9.54 8.55166 5.72989 
10 9.21984 6.9419 
9.34303 10 6.51919 
10 6.39545 8.73058 
10 6.92467 7.61875 
10 6.11773 7.59223 
10 6.5141 6.65275 
10 6.90366 5.68684 
9.54 6.48404 5.31607 
9.46989 7.41653 5.67272 
9.57205 7.49146 5.86452 
10 8.34549 6.62975 
10 7.4207 6.58407 
9.34564 10 7.52604 
9.57124 9.20002 7.52632 
10 8.38321 10 
10 7.79675 7.55657 
10 8.56586 7.53312 
10 7.29292 8.59524 
10 8.29224 8.38183 
10 9.30718 8.07681 
10 9.0723 9.24183 
9.25594 10 9.23359 
9.33737 10 8.4059 
9.19997 9.35841 10 
9.456 8.68321 9.55349 
10 6.6191 10 
10 7.72138 9.28356 
10 7.52401 10 
9.02737 8.20156 10 
9.11342 1.9524 3.87605 
9.0975 2.84972 6.00975 
9.08104 2.92277 5.00856 
9.14706 3.86947 7.03076 
9.09744 3.91842 6.02109 
9.09468 4.81122 8.16202 
9.11062 4.91709 7.03016 
7.16286 4.01195 10 
9.08 6.02 9.08 
8.51563 5.43682 9.54 
9.06897 5.90506 8.07946 
9.15549 6.79105 9.1369 
8.34544 4.90523 10 
8.97126 5.87365 10 
8.49888 6.63746 10 
8.30389 5.48056 9.6354 
6.45526 2.67135 10 
5.10689 0.79456 10 
5.46546 0.583652 9.5339 
5.70539 0 10 
7.28032 0.929067 8.32255 
6.09824 0.842971 9.27679 
7.04305 1.81455 9.17916 
5.41535 1.59479 10 
4.24725 0.785358 10 
4.756 0 10 
3.59693 0 9.47612 
4.61064 1.52491 10 
4.89632 2.15007 10 
5.55079 2.41131 10 
8.06001 4.85962 9.19238 
5.03034 0.926841 9.11952 
8.15921 1.88037 7.14279 
6.06464 1.78338 9.166 
7.04223 2.91547 9.11004 
8.0863 2.85931 8.10932 
7.03456 3.88158 9.08759 
7.98672 3.78593 9.15865 
7.08042 1.90715 8.12122 
6.40193 0 8.73691 
6.91761 0 7.61766 
7.30927 0.930577 7.32103 
8.06689 3.9275 8.08081 
6.24961 0 1.39006 
6.15124 0.163091 1.4422 
6.28076 0.161713 1.43558 
5.79766 0 1.38168 
6.02012 0 1.43237 
6.59658 0.190248 1.68839 
6.40542 0 1.53456 
8.09511 2.90907 7.06478 
7.41336 0 6.596 
8.35294 0 6.66345 
8.66733 0.42459 5.91069 
9.10244 0 5.89399 
7.5117 0.376513 5.92951 
9.1425 1.87259 5.03966 
9.20733 0.900975 5.30784 
8.12414 1.89501 6.07204 
8.22515 0.852879 6.20831 
9.14972 1.8128 6.11823 
7.53518 0.466504 5.72495 
8.58737 0.446376 5.42957 
5.36245 0 1.40234 
6.275 2.195 1.175 
6.1475 2.5775 1.175 
6.1475 2.3225 1.175 
6.1475 2.0675 1.175 
6.53 1.94 1.0475 
6.53 2.0675 1.0475 
6.4025 2.0675 1.0475 
6.53 2.195 1.0475 
6.53 2.45 1.0475 
6.53 2.705 1.0475 
5.8925 2.3225 1.175 
6.4025 2.0675 0.92 
6.4025 2.195 1.0475 
6.275 2.195 1.0475 
6.4025 2.3225 1.0475 
6.53 2.3225 1.0475 
6.4025 2.3225 0.92 
6.4025 2.45 1.0475 
6.275 2.45 1.0475 
6.4025 2.5775 1.0475 
6.53 2.5775 1.0475 
6.4025 2.5775 0.92 
6.4025 2.705 1.0475 
6.275 2.705 1.0475 
6.4025 2.8325 1.0475 
6.53 2.8325 1.0475 
6.275 2.96 1.0475 
6.4025 2.96 1.0475 
6.53 2.70603 0.919016 
6.4025 2.8325 0.92 
6.53 2.8325 0.92 
[...]
<PointData>
<DataArray type="Float64" Name="proteus_solution" NumberOfComponents="8" format="ascii">
37.9646 -1.66251e-06 2.8827e-07 1.73182e-06 1 8.99296 9 -0.00704345 
37.9643 -5.65017e-06 5.82546e-06 7.69272e-06 1 8.99296 9 -0.00704206 
37.9641 -5.53981e-06 5.05304e-06 4.57304e-07 1 8.99296 9 -0.00704145 
37.9642 -4.56133e-06 9.28852e-06 6.38638e-06 1 8.99296 9 -0.00704192 
46.498 -8.34957e-07 8.13255e-06 1.41071e-05 1 8.2711 8.27815 -0.00704506 
46.0658 -2.56776e-06 1.30276e-05 8.42756e-06 1 8.30757 8.31461 -0.00704091 
37.9628 -1.11905e-06 1.53231e-05 -3.71078e-06 1 8.99296 9 -0.0070369 
37.9631 -1.33308e-05 2.22958e-06 -2.04434e-06 1 8.99296 9 -0.00703705 
37.9618 3.07449e-06 9.66679e-06 -2.73019e-06 1 8.99297 9 -0.00703133 
37.9614 -1.08773e-05 -5.07911e-06 4.80643e-06 1 8.99297 9 -0.00702725 
47.267 -6.86803e-07 9.00498e-06 5.23996e-06 1 8.20584 8.21288 -0.00703441 
46.5663 -1.17963e-05 6.4512e-07 1.54634e-05 1 8.26529 8.27234 -0.00704321 
48.5133 -9.4763e-06 8.04813e-06 1.89047e-05 1 8.10059 8.10763 -0.00704365 
48.7565 -1.34861e-06 -6.85835e-08 1.76698e-05 1 8.08008 8.08713 -0.00704672 
55.59 -7.55351e-07 8.84151e-06 3.3288e-05 1 7.50215 7.5092 -0.00705286 
59.8029 2.10514e-06 6.96114e-07 5.38055e-05 1 7.14592 7.15297 -0.00705902 
52.6478 -5.08254e-07 1.76981e-05 2.07269e-05 1 7.75091 7.75796 -0.00704741 
52.7009 -5.27532e-06 1.4696e-05 1.47296e-05 1 7.74624 7.75328 -0.00703902 
60.4395 -3.09412e-07 2.59515e-05 4.3888e-05 1 7.09195 7.09901 -0.00705618 
54.7719 -4.38903e-06 1.83375e-05 1.48797e-05 1 7.57113 7.57817 -0.00704365 
37.9631 -1.34753e-05 6.26203e-06 1.97849e-06 1 8.99296 9 -0.00703783 
37.9631 -7.63305e-06 1.16787e-05 4.20697e-06 1 8.99296 9 -0.00703789 
42.9104 -1.4707e-05 1.14012e-05 8.71678e-06 1 8.57442 8.58146 -0.00703715 
47.9437 -1.6427e-05 1.00428e-05 1.81152e-05 1 8.14865 8.15568 -0.00703838 
42.2048 -1.32326e-05 2.78509e-05 -3.88871e-06 1 8.63391 8.64094 -0.00702884 
57.9236 1.26853e-06 1.85455e-05 1.37809e-05 1 7.30445 7.31149 -0.00703872 
44.1023 -4.98605e-06 3.17734e-06 -2.02716e-06 1 8.47349 8.48051 -0.00702828 
37.9615 -1.31121e-05 1.15568e-05 7.03501e-06 1 8.99297 9 -0.00703147 
37.9608 -1.15786e-05 1.226e-06 -8.58153e-07 1 8.99297 9 -0.00702585 
43.3981 -2.64857e-05 8.67162e-06 2.84822e-06 1 8.53297 8.54 -0.00702916 
43.5109 -1.19838e-05 2.61871e-05 -8.84372e-07 1 8.52344 8.53047 -0.00702876 
37.9614 -9.98457e-06 1.37032e-05 4.94293e-06 1 8.99297 9 -0.00702975 
37.9621 -1.19196e-05 6.3985e-06 3.87918e-06 1 8.99297 9 -0.00703079 
45.1892 -8.03275e-06 -7.4048e-08 6.65471e-06 1 8.38163 8.38867 -0.00703419 
47.1189 -1.74029e-05 2.11722e-05 6.86163e-06 1 8.21838 8.22542 -0.00703627 
48.4941 -1.42779e-05 -1.07996e-06 2.18065e-05 1 8.10197 8.109 -0.00703165 
37.9628 -8.53179e-07 -1.59752e-05 2.60334e-06 1 8.99297 9 -0.00702632 
43.4654 -1.12047e-05 -1.46321e-05 2.95432e-06 1 8.52741 8.53443 -0.00702563 
60.6035 -9.50993e-06 5.85772e-06 2.08321e-05 1 7.07772 7.08475 -0.00703311 
52.2523 -3.43945e-08 1.07875e-05 5.87786e-06 1 7.78411 7.79114 -0.00703157 
51.213 -3.02479e-06 -7.29454e-06 -1.18167e-06 1 7.87204 7.87907 -0.00702771 
56.6993 -2.01997e-05 8.07678e-06 2.90581e-05 1 7.40815 7.4152 -0.0070462 
59.3395 -1.34531e-05 8.93311e-06 4.15501e-05 1 7.18499 7.19204 -0.00705445 
65.483 -3.304e-06 2.16622e-05 6.59365e-05 1 6.66563 6.6727 -0.00706981 
66.7541 -1.94274e-05 1.16255e-05 6.83456e-05 1 6.55814 6.56522 -0.00707132 
60.6171 -1.24656e-05 -2.08454e-06 4.48497e-05 1 7.07701 7.08407 -0.00705813 
70.8537 5.91526e-06 3.41788e-06 0.000106362 1 6.21173 6.21882 -0.00708755 
59.8052 -2.50686e-05 1.55833e-05 3.8629e-05 1 7.14538 7.15243 -0.00704736 
76.0807 -3.60478e-06 3.81818e-05 0.000120736 1 5.76988 5.77698 -0.00710366 
69.9236 -7.9378e-06 4.46408e-05 7.22941e-05 1 6.29003 6.29711 -0.00707441 
68.1189 -9.43375e-06 1.90795e-05 3.61144e-05 1 6.4422 6.44925 -0.00704684 
64.2917 2.45602e-07 2.74553e-05 2.66706e-05 1 6.76603 6.77308 -0.00705387 
68.5706 -2.25151e-05 1.77381e-05 4.7715e-05 1 6.40404 6.4111 -0.00705222 
37.9601 -2.1911e-05 1.43751e-05 -9.12601e-06 1 8.99297 9 -0.00702914 
59.8658 1.06949e-05 8.8284e-07 4.25132e-05 1 7.14016 7.14723 -0.00706289 
70.8568 3.38804e-06 3.39238e-06 8.41824e-05 1 6.21104 6.21814 -0.0070913 
81.9176 3.58214e-05 -1.09473e-05 0.000176848 1 5.2766 5.28374 -0.00714352 
1088.24 0.000175794 0.000563992 -0.000307364 0.885952 0.169794 0.174495 -0.00470113 
2233.2 -6.97741e-05 -0.000661102 -0.00055553 0.288765 -0.072843 -0.0800014 0.00715835 
2233.59 -0.000118937 -0.00081281 -0.00078598 0.291093 -0.0728095 -0.0800028 0.00719332 
2240.32 -7.37895e-05 0.000405982 0.0021358 0.307682 -0.0744238 -0.0817963 0.00737251 
81.9747 -5.88473e-06 -1.4128e-05 0.000395447 1 5.27659 5.28374 -0.00715651 
70.8972 5.26071e-06 3.88828e-06 0.000215266 1 6.21103 6.21814 -0.00710551 
59.8964 3.25354e-06 -5.88409e-06 0.000121512 1 7.14015 7.14723 -0.00707672 
48.9365 -4.54627e-06 3.6589e-06 5.3702e-05 1 8.06655 8.07361 -0.00706285 
37.9833 -5.23624e-06 -2.50195e-06 6.16212e-06 1 8.99294 9 -0.00705864 
111.757 0.000365895 -0.00060064 0.0011276 1 2.76321 2.77066 -0.00744879 
71.3744 7.42287e-06 1.83799e-05 5.72059e-05 1 6.16687 6.17391 -0.00703878 
64.6509 -1.79667e-05 1.35592e-05 2.00459e-05 1 6.73538 6.74242 -0.00703604 
82.8431 -9.61643e-06 -3.09878e-05 0.000156603 1 5.19747 5.20452 -0.0070488 
79.3227 -1.10302e-05 7.23845e-05 8.8388e-05 1 5.49505 5.50212 -0.0070663 
51.5167 -8.73859e-06 -2.36475e-05 7.67931e-06 1 7.8465 7.85353 -0.00702808 
55.5953 -1.5825e-05 -2.31422e-05 1.11264e-05 1 7.50137 7.5084 -0.00702687 
73.7083 -2.6069e-05 -3.23457e-05 7.14773e-05 1 5.96971 5.97675 -0.00703436 
62.7462 4.45483e-06 -6.61049e-06 1.85607e-05 1 6.89663 6.90366 -0.00703063 
54.6648 -3.18742e-06 -3.17997e-05 1.16445e-05 1 7.58047 7.5875 -0.00703184 
37.9622 -1.66829e-05 -1.78671e-05 4.1679e-06 1 8.99298 9 -0.00702425 
43.4022 -1.15765e-05 -3.18995e-05 5.67674e-06 1 8.53297 8.54 -0.00702764 
37.9658 -6.15054e-06 -2.91184e-05 4.43323e-06 1 8.99297 9 -0.00702973 
43.4065 -1.41597e-05 -4.76139e-05 9.0802e-06 1 8.53297 8.54 -0.00703379 
42.3875 -2.17686e-05 -4.72359e-05 1.24495e-05 1 8.61912 8.62615 -0.00703265 
58.4569 -2.33335e-05 3.32468e-05 2.46366e-05 1 7.2594 7.26644 -0.00704429 
48.6263 -2.76923e-05 3.76323e-05 -2.43697e-05 1 8.09064 8.09767 -0.00702968 
37.958 -1.30799e-05 1.8893e-05 -1.08796e-06 1 8.99298 9 -0.00702001 
43.1884 -1.87548e-05 2.28539e-05 -1.01751e-06 1 8.55051 8.55753 -0.00702135 
37.9602 9.68064e-06 2.00293e-05 5.86054e-06 1 8.99298 9 -0.00701519 
37.9571 -5.58497e-06 2.88818e-05 -9.76265e-06 1 8.99299 9 -0.00701236 
37.9596 -1.36512e-05 2.41276e-05 1.78913e-06 1 8.99298 9 -0.00702052 
43.0355 -1.68186e-05 2.07289e-05 -6.37224e-07 1 8.56332 8.57033 -0.00701622 
61.172 -2.85963e-05 -3.82113e-08 4.31451e-05 1 7.0296 7.03664 -0.00703742 
47.8294 -2.48e-05 -9.75749e-06 1.02645e-05 1 8.15811 8.16514 -0.00702533 
37.9588 -3.16616e-05 1.08627e-05 -2.25025e-06 1 8.99298 9 -0.00702302 
37.9593 -3.56789e-05 -9.60298e-06 2.85273e-06 1 8.99298 9 -0.00702122 
43.8621 -2.80247e-05 1.97794e-05 -9.54011e-06 1 8.49326 8.50027 -0.00701246 
47.7022 -2.97338e-05 2.63125e-05 -7.26383e-06 1 8.16862 8.17564 -0.00702174 
46.9895 -8.27052e-06 1.54738e-05 1.67925e-05 1 8.22921 8.23624 -0.00702746 
37.9608 -5.37009e-06 8.80766e-06 -4.90978e-07 1 8.99298 9 -0.0070223 
42.6573 1.15267e-06 8.6351e-06 2.88917e-06 1 8.59572 8.60274 -0.00702047 
37.9609 -3.22794e-06 1.9727e-06 6.43571e-06 1 8.99298 9 -0.00702207 
53.9866 -1.0677e-05 -1.38281e-06 1.84654e-05 1 7.63744 7.64448 -0.00703253 
59.8281 -4.0776e-05 5.28637e-05 -4.62784e-05 1 7.14304 7.15007 -0.00703556 
47.7981 -2.62044e-05 -3.23962e-05 1.66952e-05 1 8.16089 8.16792 -0.00702405 
742.708 2.44561e-05 -0.00250563 -0.00443244 0.955596 0.277684 0.285181 -0.00749695 
60.6082 -4.52996e-05 -1.83917e-05 2.03063e-05 1 7.07718 7.08421 -0.00702709 
66.6264 -2.51708e-05 -1.18844e-06 4.56588e-05 1 6.56859 6.57565 -0.00705334 
67.1508 -3.15924e-05 1.27026e-05 6.20974e-05 1 6.52446 6.53152 -0.00706611 
70.2551 -2.17254e-05 1.55233e-05 7.82414e-05 1 6.26211 6.26918 -0.00707792 
74.0725 -1.10044e-05 -8.61224e-06 0.000124688 1 5.93958 5.94667 -0.00709394 
81.8701 -1.10127e-05 1.19286e-05 0.000184295 1 5.28103 5.28817 -0.00714072 
92.0742 -0.000129368 7.17172e-05 0.000213105 1 4.4177 4.42482 -0.00712577 
94.7687 -0.000127038 5.04546e-05 0.000284773 1 4.19039 4.19754 -0.00714821 
92.8605 6.42455e-05 -2.4845e-05 0.000430403 1 4.3538 4.36104 -0.00723414 
104.102 -0.000179572 0.00033791 0.000693154 1 3.40549 3.41282 -0.00733088 
95.8724 3.41411e-05 0.000191546 0.000434944 1 4.09815 4.10536 -0.0072087 
69.5623 -3.92988e-05 5.85716e-05 5.5106e-05 1 6.32029 6.32735 -0.00706249 
80.1696 -3.97857e-05 3.20192e-05 0.000148842 1 5.42426 5.43138 -0.00711566 
71.2458 -5.26562e-05 2.98571e-05 7.96813e-05 1 6.17793 6.185 -0.00706712 
72.7702 -6.78765e-05 -1.41883e-05 8.4852e-05 1 6.04869 6.05574 -0.00704758 
87.2321 -9.97331e-06 8.78403e-05 0.000219123 1 4.82802 4.83518 -0.0071653 
78.7754 -1.68798e-05 7.87961e-05 0.000124458 1 5.54189 5.54899 -0.00710447 
85.9608 -2.48637e-05 2.67623e-05 0.000107847 1 4.93458 4.9417 -0.00712075 
74.397 -1.07498e-06 5.58786e-05 5.39753e-05 1 5.91163 5.91871 -0.00707401 
91.5549 -0.000156726 0.000116473 0.000201718 1 4.46227 4.46944 -0.0071707 
81.3855 -3.34186e-05 4.16065e-05 0.000105474 1 5.3208 5.32789 -0.00708746 
79.6216 -3.78738e-05 3.55948e-05 9.52351e-05 1 5.46977 5.47684 -0.00707659 
2233.28 -0.000160865 -0.000598238 -0.000659033 0.289268 -0.0730282 -0.0800008 0.00697254 
2233.84 -0.000136058 -0.000544975 -0.000879953 0.288431 -0.0728854 -0.0800026 0.00711713 
2240.39 -6.67054e-05 0.000419968 0.00220283 0.307647 -0.0746021 -0.0818755 0.00727336 
2233.61 -6.53823e-05 -0.000672969 -0.000588807 0.288524 -0.0729238 -0.0800028 0.00707899 
2236.05 -6.92322e-05 0.000433574 0.00227653 0.312725 -0.0738153 -0.0810082 0.00719286 
2222.75 9.68378e-06 0.000199205 0.000792509 0.313904 -0.072707 -0.0800079 0.00730094 
2233.77 -0.000124738 -0.000608629 -0.000886186 0.287825 -0.0729682 -0.080003 0.00703479 
2241.75 -4.45922e-05 0.000368594 0.00204254 0.306662 -0.0749163 -0.0821206 0.00720436 
2222.98 7.21878e-05 4.79596e-05 0.000837533 0.312856 -0.0727452 -0.0800084 0.00726312 
2233.87 -6.631e-05 -0.000815966 -0.00073211 0.288827 -0.0729371 -0.0800022 0.00706507 
2233.79 -0.000145142 -0.000520321 -0.000577134 0.288759 -0.072886 -0.0800018 0.00711578 
2236.15 -0.000128706 0.000346909 0.00260984 0.316067 -0.0738148 -0.0810934 0.0072786 
2227.65 6.59463e-05 -0.000127383 0.000896907 0.31367 -0.0737462 -0.0811567 0.00741052 
3021.74 -4.29457e-05 -0.00036931 -0.000785185 0.133719 -0.196807 -0.207504 0.0106968 
3898.8 -9.32854e-05 0.000109403 -0.000279251 0.0809331 -0.321982 -0.335008 0.0130262 
2999.39 7.3024e-05 5.78722e-05 -0.000819378 0.120724 -0.193476 -0.204189 0.0107131 
2998.13 -1.61168e-05 -0.000375221 -0.00085886 0.128502 -0.193427 -0.204134 0.010707 
2974.63 4.23944e-05 -0.000201527 -0.000796952 0.105839 -0.189818 -0.200618 0.0107998 
2977.83 -5.32372e-05 -3.35104e-06 -0.000777369 0.129261 -0.190141 -0.20084 0.0106987 
3733.67 1.34519e-05 1.71526e-05 0.000165536 0.0739493 -0.30007 -0.313078 0.0130084 
3020.03 2.706e-05 -2.31841e-05 -0.000869292 0.116884 -0.196548 -0.207506 0.0109581 
3748.15 0.000132712 -1.73928e-05 0.000128664 0.0770727 -0.301944 -0.315048 0.0131042 
2995.01 -3.11786e-05 -0.000145048 -0.000953027 0.0954498 -0.192929 -0.203912 0.0109833 
2231.21 -5.30762e-05 0.000449748 0.00281613 0.327797 -0.0726249 -0.0800281 0.00740324 
48.9115 -2.4075e-06 -2.35198e-06 1.87788e-05 1 8.06656 8.07361 -0.00704986 
37.9598 9.24609e-07 -8.26998e-07 1.6935e-06 1 8.99295 9 -0.00704618 
37.9594 6.97084e-06 -2.28438e-07 8.85597e-07 1 8.99296 9 -0.00704465 
37.9604 -3.60702e-05 -1.49594e-05 1.30497e-05 1 8.99297 9 -0.00702761 
37.9817 -2.55863e-05 -9.64943e-06 2.36754e-05 1 8.99294 9 -0.00705602 
37.9826 -1.83739e-06 -1.79856e-05 8.65487e-06 1 8.99294 9 -0.00705698 
37.9558 -3.17174e-05 -5.03593e-07 -5.43047e-06 1 8.99299 9 -0.00701448 
37.9558 -2.21449e-05 1.66139e-05 5.37059e-06 1 8.99299 9 -0.00701471 
37.9678 3.49294e-05 1.16804e-05 4.17581e-06 1 8.99298 9 -0.00701528 
883.596 0.000251239 0.002481 -0.00217386 0.972888 0.231957 0.238398 -0.00644096 
1073.06 4.63638e-05 -8.13244e-05 -0.00141869 0.916162 0.173964 0.178701 -0.00473764 
1294.44 0.000357938 -0.000698034 0.00046373 0.857894 0.11659 0.119311 -0.00272107 
1199.05 1.23667e-05 0.00107862 -0.000414107 0.87837 0.140434 0.143804 -0.00337087 
1352.88 -0.000675501 0.0006411 -0.00183551 0.805872 0.0999151 0.102314 -0.00239892 
1065.8 0.000388092 0.000955517 -0.0018374 0.899162 0.173064 0.178095 -0.00503086 
1442.81 0.00136471 0.00127771 -0.000705938 0.793457 0.0815118 0.082669 -0.00115724 
1617.9 -0.000702389 0.000263362 -0.000609153 0.67811 0.0432371 0.042416 0.000821083 
1087.65 0.000176031 0.000280178 -0.000645872 0.923562 0.170473 0.175 -0.00452704 
1526.89 -0.000609147 -0.000338441 -0.00150784 0.704075 0.0614259 0.0615864 -0.000160524 
1208.71 -0.000471869 0.000497174 -0.000934632 0.904679 0.138959 0.142358 -0.00339847 
1514.81 -0.000333525 0.000109077 0.000206644 0.716658 0.063878 0.064181 -0.000302963 
1587.52 0.000205778 -0.000821553 -0.00045032 0.648762 0.048239 0.0475045 0.000734521 
878.359 0.000160307 0.00133805 -0.00258454 0.966237 0.233601 0.24005 -0.00644872 
1086.51 -0.000306231 0.0005748 -0.00113989 0.928392 0.170456 0.175004 -0.0045472 
1203.35 0.000353615 0.00147348 8.31009e-05 0.873411 0.139117 0.142308 -0.00319156 
1083.68 0.000168459 0.000585536 0.00114837 0.916828 0.170985 0.175 -0.00401449 
92.8957 -2.39136e-05 -2.53726e-05 0.000382775 1 4.35042 4.35765 -0.00723919 
86.7043 7.32927e-05 3.74312e-05 0.000305898 1 4.8723 4.87947 -0.00716799 
74.2613 2.07946e-05 2.75304e-06 0.000181847 1 5.92325 5.93035 -0.00710029 
67.4692 2.7131e-05 -2.24167e-05 7.91314e-05 1 6.49729 6.50437 -0.00707795 
60.7505 1.61498e-05 3.25374e-06 5.26533e-05 1 7.06532 7.07238 -0.00706252 
46.6777 1.13872e-06 -6.19062e-06 1.73826e-05 1 8.25548 8.26253 -0.00704775 
37.9593 4.20882e-06 -9.9297e-06 5.78773e-06 1 8.99296 9 -0.00704415 
56.7245 -2.00929e-06 -1.09149e-05 3.77816e-05 1 7.40579 7.41285 -0.00705726 
79.1285 -2.27281e-05 -6.15109e-05 0.000142188 1 5.51207 5.51919 -0.00712403 
67.265 -6.94738e-07 -2.67218e-05 6.93619e-05 1 6.51459 6.52167 -0.00707902 
91.1472 -3.73001e-05 -0.000133596 0.000250641 1 4.49738 4.50459 -0.00720505 
784.208 -0.00180274 -0.000212942 -0.000670308 0.99045 0.26873 0.275701 -0.00697059 
706.433 6.02392e-06 -0.000620948 0.00212206 0.997125 0.298817 0.306277 -0.00746046 
1051.27 6.9182e-05 -0.00020897 -0.00542528 0.897574 0.180647 0.185193 -0.00454595 
738.926 0.000200028 -0.00217223 0.000298184 0.973055 0.286718 0.293966 -0.0072477 
1073.02 0.000232822 -0.000694716 -0.00650505 0.877424 0.173486 0.177752 -0.00426549 
1073.54 -2.67582e-05 -0.00123297 -0.00223866 0.889592 0.170509 0.175005 -0.00449561 
717.258 0.0001442 -0.0010179 -0.00065622 0.982517 0.295166 0.302507 -0.0073408 
727.694 0.000385372 -0.00189455 -0.000485179 0.969107 0.289946 0.297034 -0.00708806 
1064.14 -0.000278032 -0.00054218 -0.00204348 0.881786 0.171755 0.17617 -0.004415 
1085.29 0.000104171 0.000582795 0.00110761 0.917625 0.17164 0.175004 -0.00336331 
1075.32 0.000262674 -0.000110268 -0.00444646 0.889934 0.17094 0.175008 -0.00406858 
725.726 -0.000346181 0.00159113 0.000171041 0.970031 0.292606 0.299193 -0.0065874 
1072.34 0.00017389 0.000757079 -0.00236209 0.885449 0.170749 0.175006 -0.0042572 
424.038 0.00171081 0.000304601 -0.00200113 0.994081 0.431313 0.439988 -0.00867552 
1070.93 -0.000467592 0.00119836 -0.000754889 0.847023 0.171157 0.175012 -0.00385498 
715.491 0.000141428 0.000100279 0.000243022 0.987443 0.295126 0.302507 -0.00738153 
716.732 -0.000186261 -0.00182177 0.00129427 0.983934 0.295382 0.302505 -0.00712284 
721.207 -0.000601169 -0.00203338 0.000119786 0.988246 0.294262 0.30158 -0.00731863 
742.91 -0.000339966 -0.0016717 -5.39551e-05 0.973769 0.283289 0.290269 -0.00698004 
2250.75 -3.91509e-05 0.000383111 0.00207528 0.302413 -0.0760354 -0.0835458 0.00751032 
2222.59 0.000135007 -2.17342e-06 0.000705316 0.301193 -0.0724873 -0.0800071 0.00751984 
2223 -7.26804e-06 0.000111448 0.000790586 0.285228 -0.0725359 -0.080008 0.00747209 
2233.42 -9.3819e-05 -0.000642169 -0.000681319 0.286406 -0.0727332 -0.0800014 0.00726818 
37.9592 7.98915e-06 -5.37464e-06 1.11569e-06 1 8.99296 9 -0.00704374 
112.821 0.000501653 -0.000221218 0.00159666 1 2.67813 2.68548 -0.00734939 
104.099 -0.000424127 -0.000122637 0.000373227 1 3.40527 3.41253 -0.00725383 
1083.36 0.000219111 -0.000929569 -0.00814443 0.867692 0.171487 0.175038 -0.00355156 
1086.97 0.00101587 0.00162445 0.00154151 0.917783 0.171751 0.175003 -0.0032522 
1086.12 0.000215491 0.000635857 0.00127077 0.91791 0.171841 0.175006 -0.00316488 
1087.45 0.000914224 0.001607 0.00174308 0.918034 0.171928 0.175002 -0.0030742 
1086.86 -4.05489e-05 0.000830656 0.00106733 0.918151 0.17201 0.175004 -0.0029941 
1588.18 1.91684e-05 -2.2754e-05 3.54528e-05 0.645481 0.0491404 0.0475001 0.00164032 
1587.89 0.000106686 0.000228594 -1.49881e-05 0.645618 0.0491851 0.0475002 0.00168484 
1590.47 -5.16777e-05 -0.00030154 0.000648861 0.646614 0.0495704 0.0474935 0.00207698 
2234.23 -0.000129924 -0.000613946 -0.000538493 0.289376 -0.0726707 -0.080002 0.00733129 
2222.9 0.00039926 9.84377e-05 0.000817925 0.317685 -0.072465 -0.0800082 0.00754323 
1591.04 -0.000164237 6.21491e-05 -0.00106087 0.649493 0.049604 0.0475105 0.00209351 
2230.57 -4.20899e-05 0.000359956 0.00215915 0.309324 -0.0725909 -0.0800216 0.00743072 
2234.1 -9.32003e-05 -0.00054207 -0.000913911 0.287574 -0.0726644 -0.080003 0.00733863 
2223.5 -3.36605e-05 6.45395e-05 0.000672992 0.288064 -0.0724316 -0.0800068 0.00757515 
2224.35 0.000213014 2.9728e-05 0.000660448 0.309883 -0.0724612 -0.0800066 0.0075454 
2233.99 -6.08275e-05 -0.000758043 -0.000633772 0.288547 -0.0726719 -0.0800014 0.00732949 
2234.84 -9.53398e-05 0.000438157 0.00178498 0.304698 -0.0733648 -0.0808376 0.00747278 
2223.8 6.51698e-05 2.34804e-05 0.000584365 0.307836 -0.0724725 -0.0800059 0.00753341 
2233.62 -0.000103069 -0.000803198 -0.000857036 0.287629 -0.0727052 -0.0800018 0.0072966 
2240.07 -9.24e-05 0.00043647 0.00191278 0.308924 -0.0743239 -0.0817412 0.00741731 
2223.1 0.000131917 2.899e-05 0.000795512 0.311694 -0.0725558 -0.080008 0.00745221 
2233.76 -0.000103541 -0.000554106 -0.000925761 0.288219 -0.0726736 -0.0800023 0.00732868 
2224 6.27796e-05 0.000308344 0.000803833 0.312604 -0.0724894 -0.0800081 0.00751868 
2222.65 0.000230273 3.05391e-05 0.000838123 0.314337 -0.072501 -0.0800084 0.00750742 
2241.86 -0.000104645 0.000381284 0.00242203 0.311964 -0.0744668 -0.081916 0.00744921 
2233.92 -0.000122408 -0.000589521 -0.000638744 0.289357 -0.0726956 -0.0800029 0.00730727 
2223.13 4.28956e-05 8.00242e-05 0.000730682 0.313018 -0.0725175 -0.0800073 0.00748983 
1085.29 0.000101493 -0.000568114 -0.00798457 0.873999 0.171859 0.175038 -0.00317932 
1086.87 0.000205087 0.000984556 0.00160983 0.918321 0.17213 0.175009 -0.00287982 
1084.91 6.41764e-05 -0.000598193 -0.00773199 0.874212 0.171999 0.175004 -0.00300561 
1088.02 0.000946439 0.00180429 0.00157659 0.918269 0.172093 0.175002 -0.00290943 
1590.08 -0.000132993 0.000573993 -0.00127921 0.645448 0.0491253 0.0475132 0.00161213 
1590.49 0.000157402 -0.000179144 0.000418509 0.645001 0.0491769 0.0474956 0.00168129 
1087.01 0.00016491 0.000752975 0.00128909 0.918373 0.172166 0.175005 -0.00283896 
2233.93 -8.64245e-05 -0.000827288 -0.000733796 0.288322 -0.07285 -0.0800024 0.00715236 
2235.21 -9.78427e-05 0.000441318 0.00189738 0.30937 -0.0736485 -0.0809296 0.0072811 
2223.18 9.21294e-05 -0.000105895 0.000970241 0.315822 -0.0726702 -0.0800097 0.00733952 
2233.75 -0.000177284 -0.000544243 -0.000843864 0.287311 -0.0728016 -0.0800023 0.00720071 
2223.91 4.25019e-05 -3.1187e-05 0.000781172 0.309577 -0.0726315 -0.0800078 0.00737638 
2229.22 -5.19696e-05 0.00037222 0.00197261 0.309781 -0.0727138 -0.0800197 0.00730589 